/*--------------------------------*- C++ -*----------------------------------*\
| =========                 |                                                 |
| \\      /  F ield         | OpenFOAM: The Open Source CFD Toolbox           |
|  \\    /   O peration     | Version:  4.1                                   |
|   \\  /    A nd           | Web:      www.OpenFOAM.org                      |
|    \\/     M anipulation  |                                                 |
\*---------------------------------------------------------------------------*/
FoamFile
{
    version     2.0;
    format      ascii;
    class       volVectorField;
    location    "1.7";
    object      HU;
}
// * * * * * * * * * * * * * * * * * * * * * * * * * * * * * * * * * * * * * //

dimensions      [0 2 -1 0 0 0 0];

internalField   nonuniform List<vector> 
40
(
(-6.351 0 0)
(-6.37012 0 0)
(-6.39445 0 0)
(-6.42086 0 0)
(-6.44769 0 0)
(-6.47435 0 0)
(-6.50056 0 0)
(-6.52624 0 0)
(-6.55134 0 0)
(-6.57583 0 0)
(-6.59969 0 0)
(-6.62293 0 0)
(-6.64552 0 0)
(-6.66746 0 0)
(-6.68875 0 0)
(-6.70937 0 0)
(-6.72931 0 0)
(-6.74857 0 0)
(-6.76713 0 0)
(-6.785 0 0)
(-6.80217 0 0)
(-6.81863 0 0)
(-6.83437 0 0)
(-6.84939 0 0)
(-6.86368 0 0)
(-6.87725 0 0)
(-6.89008 0 0)
(-6.90219 0 0)
(-6.91357 0 0)
(-6.92422 0 0)
(-6.93416 0 0)
(-6.94338 0 0)
(-6.95189 0 0)
(-6.95972 0 0)
(-6.96686 0 0)
(-6.97335 0 0)
(-6.9792 0 0)
(-6.98442 0 0)
(-6.98905 0 0)
(-6.9931 0 0)
)
;

boundaryField
{
    leftWall
    {
        type            zeroGradient;
    }
    rightWall
    {
        type            fixedValue;
        value           uniform (-7 0 0);
    }
    lowerWall
    {
        type            empty;
    }
    atmosphere
    {
        type            empty;
    }
    sides
    {
        type            empty;
    }
}


// ************************************************************************* //
