/*--------------------------------*- C++ -*----------------------------------*\
| =========                 |                                                 |
| \\      /  F ield         | OpenFOAM: The Open Source CFD Toolbox           |
|  \\    /   O peration     | Version:  4.1                                   |
|   \\  /    A nd           | Web:      www.OpenFOAM.org                      |
|    \\/     M anipulation  |                                                 |
\*---------------------------------------------------------------------------*/
FoamFile
{
    version     2.0;
    format      ascii;
    class       volVectorField;
    location    "1.7";
    object      U;
}
// * * * * * * * * * * * * * * * * * * * * * * * * * * * * * * * * * * * * * //

dimensions      [0 1 -1 0 0 0 0];

internalField   nonuniform List<vector> 
40
(
(-5.44069 0 0)
(-5.42278 0 0)
(-5.39697 0 0)
(-5.36798 0 0)
(-5.33769 0 0)
(-5.30684 0 0)
(-5.27577 0 0)
(-5.2446 0 0)
(-5.2134 0 0)
(-5.18218 0 0)
(-5.15099 0 0)
(-5.11983 0 0)
(-5.08874 0 0)
(-5.05771 0 0)
(-5.02679 0 0)
(-4.99599 0 0)
(-4.96533 0 0)
(-4.93485 0 0)
(-4.90458 0 0)
(-4.87456 0 0)
(-4.84482 0 0)
(-4.81542 0 0)
(-4.78639 0 0)
(-4.7578 0 0)
(-4.72971 0 0)
(-4.7022 0 0)
(-4.67535 0 0)
(-4.64924 0 0)
(-4.62398 0 0)
(-4.59967 0 0)
(-4.57646 0 0)
(-4.55446 0 0)
(-4.53382 0 0)
(-4.51471 0 0)
(-4.49728 0 0)
(-4.4817 0 0)
(-4.46814 0 0)
(-4.45675 0 0)
(-4.44766 0 0)
(-4.44099 0 0)
)
;

boundaryField
{
    leftWall
    {
        type            calculated;
        value           uniform (-5.44069 0 0);
    }
    rightWall
    {
        type            calculated;
        value           uniform (-3.5 0 0);
    }
    lowerWall
    {
        type            empty;
    }
    atmosphere
    {
        type            empty;
    }
    sides
    {
        type            empty;
    }
}


// ************************************************************************* //
