/*--------------------------------*- C++ -*----------------------------------*\
| =========                 |                                                 |
| \\      /  F ield         | OpenFOAM: The Open Source CFD Toolbox           |
|  \\    /   O peration     | Version:  4.1                                   |
|   \\  /    A nd           | Web:      www.OpenFOAM.org                      |
|    \\/     M anipulation  |                                                 |
\*---------------------------------------------------------------------------*/
FoamFile
{
    version     2.0;
    format      ascii;
    class       volVectorField;
    location    "1.65";
    object      HU;
}
// * * * * * * * * * * * * * * * * * * * * * * * * * * * * * * * * * * * * * //

dimensions      [0 2 -1 0 0 0 0];

internalField   nonuniform List<vector> 
40
(
(-6.31611 0 0)
(-6.33638 0 0)
(-6.36214 0 0)
(-6.39001 0 0)
(-6.41828 0 0)
(-6.44634 0 0)
(-6.47392 0 0)
(-6.50094 0 0)
(-6.52734 0 0)
(-6.55311 0 0)
(-6.57823 0 0)
(-6.60268 0 0)
(-6.62646 0 0)
(-6.64957 0 0)
(-6.67198 0 0)
(-6.69369 0 0)
(-6.71469 0 0)
(-6.73498 0 0)
(-6.75454 0 0)
(-6.77336 0 0)
(-6.79145 0 0)
(-6.80879 0 0)
(-6.82537 0 0)
(-6.8412 0 0)
(-6.85626 0 0)
(-6.87056 0 0)
(-6.88408 0 0)
(-6.89683 0 0)
(-6.90882 0 0)
(-6.92004 0 0)
(-6.93049 0 0)
(-6.94019 0 0)
(-6.94915 0 0)
(-6.95737 0 0)
(-6.96488 0 0)
(-6.97169 0 0)
(-6.97783 0 0)
(-6.9833 0 0)
(-6.98815 0 0)
(-6.99239 0 0)
)
;

boundaryField
{
    leftWall
    {
        type            zeroGradient;
    }
    rightWall
    {
        type            fixedValue;
        value           uniform (-7 0 0);
    }
    lowerWall
    {
        type            empty;
    }
    atmosphere
    {
        type            empty;
    }
    sides
    {
        type            empty;
    }
}


// ************************************************************************* //
