/*--------------------------------*- C++ -*----------------------------------*\
| =========                 |                                                 |
| \\      /  F ield         | OpenFOAM: The Open Source CFD Toolbox           |
|  \\    /   O peration     | Version:  4.1                                   |
|   \\  /    A nd           | Web:      www.OpenFOAM.org                      |
|    \\/     M anipulation  |                                                 |
\*---------------------------------------------------------------------------*/
FoamFile
{
    version     2.0;
    format      ascii;
    class       surfaceScalarField;
    location    "1.65";
    object      phi;
}
// * * * * * * * * * * * * * * * * * * * * * * * * * * * * * * * * * * * * * //

dimensions      [0 3 -1 0 0 0 0];

internalField   nonuniform List<scalar> 
39
(
-21.8906
-21.7994
-21.6857
-21.5632
-21.437
-21.3093
-21.181
-21.0524
-20.9237
-20.795
-20.6663
-20.5378
-20.4096
-20.2816
-20.1541
-20.0271
-19.9007
-19.775
-19.6503
-19.5265
-19.404
-19.2828
-19.1633
-19.0456
-18.9301
-18.817
-18.7067
-18.5995
-18.496
-18.3965
-18.3017
-18.2121
-18.1283
-18.051
-17.9809
-17.9187
-17.865
-17.8205
-17.7857
)
;

boundaryField
{
    leftWall
    {
        type            calculated;
        value           uniform 21.9281;
    }
    rightWall
    {
        type            calculated;
        value           uniform -14;
    }
    lowerWall
    {
        type            empty;
        value           nonuniform 0();
    }
    atmosphere
    {
        type            empty;
        value           nonuniform 0();
    }
    sides
    {
        type            empty;
        value           nonuniform 0();
    }
}


// ************************************************************************* //
