/*--------------------------------*- C++ -*----------------------------------*\
| =========                 |                                                 |
| \\      /  F ield         | OpenFOAM: The Open Source CFD Toolbox           |
|  \\    /   O peration     | Version:  4.1                                   |
|   \\  /    A nd           | Web:      www.OpenFOAM.org                      |
|    \\/     M anipulation  |                                                 |
\*---------------------------------------------------------------------------*/
FoamFile
{
    version     2.0;
    format      ascii;
    class       volVectorField;
    location    "1.65";
    object      U;
}
// * * * * * * * * * * * * * * * * * * * * * * * * * * * * * * * * * * * * * //

dimensions      [0 1 -1 0 0 0 0];

internalField   nonuniform List<vector> 
40
(
(-5.48203 0 0)
(-5.46327 0 0)
(-5.43643 0 0)
(-5.40644 0 0)
(-5.37516 0 0)
(-5.34335 0 0)
(-5.31132 0 0)
(-5.27919 0 0)
(-5.24701 0 0)
(-5.21483 0 0)
(-5.18265 0 0)
(-5.15051 0 0)
(-5.11841 0 0)
(-5.08638 0 0)
(-5.05444 0 0)
(-5.02262 0 0)
(-4.99093 0 0)
(-4.95942 0 0)
(-4.9281 0 0)
(-4.89703 0 0)
(-4.86623 0 0)
(-4.83576 0 0)
(-4.80566 0 0)
(-4.77599 0 0)
(-4.74682 0 0)
(-4.71822 0 0)
(-4.69027 0 0)
(-4.66306 0 0)
(-4.6367 0 0)
(-4.6113 0 0)
(-4.58698 0 0)
(-4.56389 0 0)
(-4.54217 0 0)
(-4.52199 0 0)
(-4.50352 0 0)
(-4.48694 0 0)
(-4.4724 0 0)
(-4.46009 0 0)
(-4.45015 0 0)
(-4.44269 0 0)
)
;

boundaryField
{
    leftWall
    {
        type            calculated;
        value           uniform (-5.48203 0 0);
    }
    rightWall
    {
        type            calculated;
        value           uniform (-3.5 0 0);
    }
    lowerWall
    {
        type            empty;
    }
    atmosphere
    {
        type            empty;
    }
    sides
    {
        type            empty;
    }
}


// ************************************************************************* //
