/*--------------------------------*- C++ -*----------------------------------*\
| =========                 |                                                 |
| \\      /  F ield         | OpenFOAM: The Open Source CFD Toolbox           |
|  \\    /   O peration     | Version:  4.1                                   |
|   \\  /    A nd           | Web:      www.OpenFOAM.org                      |
|    \\/     M anipulation  |                                                 |
\*---------------------------------------------------------------------------*/
FoamFile
{
    version     2.0;
    format      ascii;
    class       volVectorField;
    location    "1.6";
    object      HU;
}
// * * * * * * * * * * * * * * * * * * * * * * * * * * * * * * * * * * * * * //

dimensions      [0 2 -1 0 0 0 0];

internalField   nonuniform List<vector> 
40
(
(-6.27828 0 0)
(-6.2998 0 0)
(-6.32712 0 0)
(-6.35657 0 0)
(-6.38639 0 0)
(-6.41596 0 0)
(-6.44503 0 0)
(-6.47349 0 0)
(-6.50131 0 0)
(-6.52846 0 0)
(-6.55493 0 0)
(-6.58071 0 0)
(-6.60578 0 0)
(-6.63014 0 0)
(-6.65377 0 0)
(-6.67667 0 0)
(-6.69882 0 0)
(-6.72022 0 0)
(-6.74086 0 0)
(-6.76073 0 0)
(-6.77981 0 0)
(-6.79811 0 0)
(-6.81561 0 0)
(-6.83232 0 0)
(-6.84821 0 0)
(-6.8633 0 0)
(-6.87757 0 0)
(-6.89103 0 0)
(-6.90367 0 0)
(-6.9155 0 0)
(-6.92653 0 0)
(-6.93675 0 0)
(-6.94619 0 0)
(-6.95485 0 0)
(-6.96275 0 0)
(-6.96991 0 0)
(-6.97636 0 0)
(-6.98211 0 0)
(-6.98719 0 0)
(-6.99163 0 0)
)
;

boundaryField
{
    leftWall
    {
        type            zeroGradient;
    }
    rightWall
    {
        type            fixedValue;
        value           uniform (-7 0 0);
    }
    lowerWall
    {
        type            empty;
    }
    atmosphere
    {
        type            empty;
    }
    sides
    {
        type            empty;
    }
}


// ************************************************************************* //
