/*--------------------------------*- C++ -*----------------------------------*\
| =========                 |                                                 |
| \\      /  F ield         | OpenFOAM: The Open Source CFD Toolbox           |
|  \\    /   O peration     | Version:  4.1                                   |
|   \\  /    A nd           | Web:      www.OpenFOAM.org                      |
|    \\/     M anipulation  |                                                 |
\*---------------------------------------------------------------------------*/
FoamFile
{
    version     2.0;
    format      ascii;
    class       surfaceScalarField;
    location    "1.6";
    object      phi;
}
// * * * * * * * * * * * * * * * * * * * * * * * * * * * * * * * * * * * * * //

dimensions      [0 3 -1 0 0 0 0];

internalField   nonuniform List<scalar> 
39
(
-22.0634
-21.9682
-21.8503
-21.7236
-21.5933
-21.4616
-21.3292
-21.1966
-21.0638
-20.9309
-20.7981
-20.6654
-20.533
-20.4008
-20.2689
-20.1376
-20.0068
-19.8768
-19.7476
-19.6194
-19.4923
-19.3667
-19.2426
-19.1204
-19.0002
-18.8825
-18.7676
-18.6558
-18.5476
-18.4435
-18.344
-18.2498
-18.1615
-18.0798
-18.0053
-17.9388
-17.8811
-17.8329
-17.7946
)
;

boundaryField
{
    leftWall
    {
        type            calculated;
        value           uniform 22.1028;
    }
    rightWall
    {
        type            calculated;
        value           uniform -14;
    }
    lowerWall
    {
        type            empty;
        value           nonuniform 0();
    }
    atmosphere
    {
        type            empty;
        value           nonuniform 0();
    }
    sides
    {
        type            empty;
        value           nonuniform 0();
    }
}


// ************************************************************************* //
