/*--------------------------------*- C++ -*----------------------------------*\
| =========                 |                                                 |
| \\      /  F ield         | OpenFOAM: The Open Source CFD Toolbox           |
|  \\    /   O peration     | Version:  4.1                                   |
|   \\  /    A nd           | Web:      www.OpenFOAM.org                      |
|    \\/     M anipulation  |                                                 |
\*---------------------------------------------------------------------------*/
FoamFile
{
    version     2.0;
    format      ascii;
    class       volVectorField;
    location    "1.6";
    object      U;
}
// * * * * * * * * * * * * * * * * * * * * * * * * * * * * * * * * * * * * * //

dimensions      [0 1 -1 0 0 0 0];

internalField   nonuniform List<vector> 
40
(
(-5.52569 0 0)
(-5.50601 0 0)
(-5.47811 0 0)
(-5.44705 0 0)
(-5.41474 0 0)
(-5.38192 0 0)
(-5.34888 0 0)
(-5.31574 0 0)
(-5.28255 0 0)
(-5.24933 0 0)
(-5.21612 0 0)
(-5.18293 0 0)
(-5.14978 0 0)
(-5.11669 0 0)
(-5.08369 0 0)
(-5.05078 0 0)
(-5.01801 0 0)
(-4.9854 0 0)
(-4.95299 0 0)
(-4.9208 0 0)
(-4.88889 0 0)
(-4.85729 0 0)
(-4.82606 0 0)
(-4.79525 0 0)
(-4.76493 0 0)
(-4.73518 0 0)
(-4.70607 0 0)
(-4.6777 0 0)
(-4.65018 0 0)
(-4.62361 0 0)
(-4.59813 0 0)
(-4.57389 0 0)
(-4.55103 0 0)
(-4.52973 0 0)
(-4.51015 0 0)
(-4.49249 0 0)
(-4.47693 0 0)
(-4.46364 0 0)
(-4.45279 0 0)
(-4.4445 0 0)
)
;

boundaryField
{
    leftWall
    {
        type            calculated;
        value           uniform (-5.52569 0 0);
    }
    rightWall
    {
        type            calculated;
        value           uniform (-3.5 0 0);
    }
    lowerWall
    {
        type            empty;
    }
    atmosphere
    {
        type            empty;
    }
    sides
    {
        type            empty;
    }
}


// ************************************************************************* //
