/*--------------------------------*- C++ -*----------------------------------*\
| =========                 |                                                 |
| \\      /  F ield         | OpenFOAM: The Open Source CFD Toolbox           |
|  \\    /   O peration     | Version:  4.1                                   |
|   \\  /    A nd           | Web:      www.OpenFOAM.org                      |
|    \\/     M anipulation  |                                                 |
\*---------------------------------------------------------------------------*/
FoamFile
{
    version     2.0;
    format      ascii;
    class       volVectorField;
    location    "0.65";
    object      HU;
}
// * * * * * * * * * * * * * * * * * * * * * * * * * * * * * * * * * * * * * //

dimensions      [0 2 -1 0 0 0 0];

internalField   nonuniform List<vector> 
40
(
(-3.89674 0 0)
(-4.00591 0 0)
(-4.12047 0 0)
(-4.23446 0 0)
(-4.34746 0 0)
(-4.45956 0 0)
(-4.57081 0 0)
(-4.68118 0 0)
(-4.79058 0 0)
(-4.89892 0 0)
(-5.00605 0 0)
(-5.11184 0 0)
(-5.21613 0 0)
(-5.31876 0 0)
(-5.41957 0 0)
(-5.5184 0 0)
(-5.61508 0 0)
(-5.70945 0 0)
(-5.80137 0 0)
(-5.89068 0 0)
(-5.97724 0 0)
(-6.06089 0 0)
(-6.14151 0 0)
(-6.21897 0 0)
(-6.29313 0 0)
(-6.36388 0 0)
(-6.43111 0 0)
(-6.49472 0 0)
(-6.55459 0 0)
(-6.61065 0 0)
(-6.6628 0 0)
(-6.71098 0 0)
(-6.75513 0 0)
(-6.79523 0 0)
(-6.83128 0 0)
(-6.86329 0 0)
(-6.89136 0 0)
(-6.9156 0 0)
(-6.93621 0 0)
(-6.95341 0 0)
)
;

boundaryField
{
    leftWall
    {
        type            zeroGradient;
    }
    rightWall
    {
        type            fixedValue;
        value           uniform (-7 0 0);
    }
    lowerWall
    {
        type            empty;
    }
    atmosphere
    {
        type            empty;
    }
    sides
    {
        type            empty;
    }
}


// ************************************************************************* //
