/*--------------------------------*- C++ -*----------------------------------*\
| =========                 |                                                 |
| \\      /  F ield         | OpenFOAM: The Open Source CFD Toolbox           |
|  \\    /   O peration     | Version:  4.1                                   |
|   \\  /    A nd           | Web:      www.OpenFOAM.org                      |
|    \\/     M anipulation  |                                                 |
\*---------------------------------------------------------------------------*/
FoamFile
{
    version     2.0;
    format      ascii;
    class       surfaceScalarField;
    location    "0.65";
    object      phi;
}
// * * * * * * * * * * * * * * * * * * * * * * * * * * * * * * * * * * * * * //

dimensions      [0 3 -1 0 0 0 0];

internalField   nonuniform List<scalar> 
39
(
-28.8187
-28.6388
-28.4362
-28.2201
-27.9923
-27.7539
-27.5059
-27.249
-26.9841
-26.7119
-26.4331
-26.1483
-25.8582
-25.5631
-25.2638
-24.9607
-24.6542
-24.3448
-24.0329
-23.719
-23.4036
-23.0869
-22.7695
-22.4519
-22.1346
-21.818
-21.5027
-21.1895
-20.879
-20.5721
-20.2697
-19.973
-19.6833
-19.4023
-19.1316
-18.8736
-18.6308
-18.4062
-18.203
)
;

boundaryField
{
    leftWall
    {
        type            calculated;
        value           uniform 28.901;
    }
    rightWall
    {
        type            calculated;
        value           uniform -14;
    }
    lowerWall
    {
        type            empty;
        value           nonuniform 0();
    }
    atmosphere
    {
        type            empty;
        value           nonuniform 0();
    }
    sides
    {
        type            empty;
        value           nonuniform 0();
    }
}


// ************************************************************************* //
