/*--------------------------------*- C++ -*----------------------------------*\
| =========                 |                                                 |
| \\      /  F ield         | OpenFOAM: The Open Source CFD Toolbox           |
|  \\    /   O peration     | Version:  4.1                                   |
|   \\  /    A nd           | Web:      www.OpenFOAM.org                      |
|    \\/     M anipulation  |                                                 |
\*---------------------------------------------------------------------------*/
FoamFile
{
    version     2.0;
    format      ascii;
    class       volVectorField;
    location    "0.65";
    object      U;
}
// * * * * * * * * * * * * * * * * * * * * * * * * * * * * * * * * * * * * * //

dimensions      [0 1 -1 0 0 0 0];

internalField   nonuniform List<vector> 
40
(
(-7.22526 0 0)
(-7.18411 0 0)
(-7.13531 0 0)
(-7.08281 0 0)
(-7.02725 0 0)
(-6.96891 0 0)
(-6.90805 0 0)
(-6.84489 0 0)
(-6.77962 0 0)
(-6.71244 0 0)
(-6.64353 0 0)
(-6.57304 0 0)
(-6.50113 0 0)
(-6.42795 0 0)
(-6.35362 0 0)
(-6.27828 0 0)
(-6.20205 0 0)
(-6.12503 0 0)
(-6.04735 0 0)
(-5.96911 0 0)
(-5.89041 0 0)
(-5.81137 0 0)
(-5.73209 0 0)
(-5.65269 0 0)
(-5.57328 0 0)
(-5.494 0 0)
(-5.41498 0 0)
(-5.33638 0 0)
(-5.25837 0 0)
(-5.18114 0 0)
(-5.10491 0 0)
(-5.02995 0 0)
(-4.95656 0 0)
(-4.88511 0 0)
(-4.81602 0 0)
(-4.74979 0 0)
(-4.68702 0 0)
(-4.6284 0 0)
(-4.57472 0 0)
(-4.5268 0 0)
)
;

boundaryField
{
    leftWall
    {
        type            calculated;
        value           uniform (-7.22526 0 0);
    }
    rightWall
    {
        type            calculated;
        value           uniform (-3.5 0 0);
    }
    lowerWall
    {
        type            empty;
    }
    atmosphere
    {
        type            empty;
    }
    sides
    {
        type            empty;
    }
}


// ************************************************************************* //
