/*--------------------------------*- C++ -*----------------------------------*\
| =========                 |                                                 |
| \\      /  F ield         | OpenFOAM: The Open Source CFD Toolbox           |
|  \\    /   O peration     | Version:  4.1                                   |
|   \\  /    A nd           | Web:      www.OpenFOAM.org                      |
|    \\/     M anipulation  |                                                 |
\*---------------------------------------------------------------------------*/
FoamFile
{
    version     2.0;
    format      ascii;
    class       volVectorField;
    location    "1.3";
    object      HU;
}
// * * * * * * * * * * * * * * * * * * * * * * * * * * * * * * * * * * * * * //

dimensions      [0 2 -1 0 0 0 0];

internalField   nonuniform List<vector> 
40
(
(-5.96718 0 0)
(-5.99929 0 0)
(-6.03937 0 0)
(-6.08161 0 0)
(-6.12393 0 0)
(-6.16571 0 0)
(-6.20673 0 0)
(-6.24693 0 0)
(-6.28626 0 0)
(-6.3247 0 0)
(-6.36223 0 0)
(-6.39882 0 0)
(-6.43446 0 0)
(-6.46914 0 0)
(-6.50282 0 0)
(-6.5355 0 0)
(-6.56716 0 0)
(-6.59777 0 0)
(-6.62732 0 0)
(-6.6558 0 0)
(-6.68319 0 0)
(-6.70946 0 0)
(-6.73462 0 0)
(-6.75863 0 0)
(-6.7815 0 0)
(-6.8032 0 0)
(-6.82373 0 0)
(-6.84308 0 0)
(-6.86125 0 0)
(-6.87823 0 0)
(-6.89403 0 0)
(-6.90866 0 0)
(-6.92211 0 0)
(-6.93442 0 0)
(-6.94559 0 0)
(-6.95567 0 0)
(-6.96468 0 0)
(-6.97267 0 0)
(-6.97968 0 0)
(-6.98575 0 0)
)
;

boundaryField
{
    leftWall
    {
        type            zeroGradient;
    }
    rightWall
    {
        type            fixedValue;
        value           uniform (-7 0 0);
    }
    lowerWall
    {
        type            empty;
    }
    atmosphere
    {
        type            empty;
    }
    sides
    {
        type            empty;
    }
}


// ************************************************************************* //
