/*--------------------------------*- C++ -*----------------------------------*\
| =========                 |                                                 |
| \\      /  F ield         | OpenFOAM: The Open Source CFD Toolbox           |
|  \\    /   O peration     | Version:  4.1                                   |
|   \\  /    A nd           | Web:      www.OpenFOAM.org                      |
|    \\/     M anipulation  |                                                 |
\*---------------------------------------------------------------------------*/
FoamFile
{
    version     2.0;
    format      ascii;
    class       volScalarField;
    location    "1.3";
    object      nut;
}
// * * * * * * * * * * * * * * * * * * * * * * * * * * * * * * * * * * * * * //

dimensions      [0 2 -1 0 0 0 0];

internalField   nonuniform List<scalar> 
40
(
0.0434645
0.0436264
0.0438246
0.0440311
0.0442356
0.044435
0.0446284
0.0448155
0.044996
0.0451699
0.0453371
0.0454976
0.0456512
0.045798
0.0459379
0.0460708
0.0461968
0.0463158
0.0464277
0.0465327
0.0466306
0.0467215
0.0468055
0.0468826
0.0469529
0.0470164
0.0470734
0.047124
0.0471684
0.0472069
0.0472398
0.0472675
0.0472906
0.0473094
0.0473246
0.0473368
0.0473469
0.0473556
0.0473636
0.0473718
)
;

boundaryField
{
    leftWall
    {
        type            zeroGradient;
    }
    rightWall
    {
        type            zeroGradient;
    }
    lowerWall
    {
        type            empty;
    }
    atmosphere
    {
        type            empty;
    }
    sides
    {
        type            empty;
    }
}


// ************************************************************************* //
