/*--------------------------------*- C++ -*----------------------------------*\
| =========                 |                                                 |
| \\      /  F ield         | OpenFOAM: The Open Source CFD Toolbox           |
|  \\    /   O peration     | Version:  4.1                                   |
|   \\  /    A nd           | Web:      www.OpenFOAM.org                      |
|    \\/     M anipulation  |                                                 |
\*---------------------------------------------------------------------------*/
FoamFile
{
    version     2.0;
    format      ascii;
    class       surfaceScalarField;
    location    "1.3";
    object      phi;
}
// * * * * * * * * * * * * * * * * * * * * * * * * * * * * * * * * * * * * * //

dimensions      [0 3 -1 0 0 0 0];

internalField   nonuniform List<scalar> 
39
(
-23.3444
-23.2199
-23.0713
-22.9148
-22.7553
-22.5945
-22.4328
-22.2706
-22.1079
-21.9448
-21.7814
-21.6178
-21.4541
-21.2904
-21.1268
-20.9634
-20.8003
-20.6377
-20.4756
-20.3143
-20.154
-19.9948
-19.837
-19.6808
-19.5265
-19.3744
-19.225
-19.0787
-18.9359
-18.7972
-18.6632
-18.5347
-18.4124
-18.2972
-18.19
-18.0919
-18.0039
-17.9269
-17.8621
)
;

boundaryField
{
    leftWall
    {
        type            calculated;
        value           uniform 23.3976;
    }
    rightWall
    {
        type            calculated;
        value           uniform -14;
    }
    lowerWall
    {
        type            empty;
        value           nonuniform 0();
    }
    atmosphere
    {
        type            empty;
        value           nonuniform 0();
    }
    sides
    {
        type            empty;
        value           nonuniform 0();
    }
}


// ************************************************************************* //
