/*--------------------------------*- C++ -*----------------------------------*\
| =========                 |                                                 |
| \\      /  F ield         | OpenFOAM: The Open Source CFD Toolbox           |
|  \\    /   O peration     | Version:  4.1                                   |
|   \\  /    A nd           | Web:      www.OpenFOAM.org                      |
|    \\/     M anipulation  |                                                 |
\*---------------------------------------------------------------------------*/
FoamFile
{
    version     2.0;
    format      ascii;
    class       volVectorField;
    location    "1.3";
    object      U;
}
// * * * * * * * * * * * * * * * * * * * * * * * * * * * * * * * * * * * * * //

dimensions      [0 1 -1 0 0 0 0];

internalField   nonuniform List<vector> 
40
(
(-5.84939 0 0)
(-5.82279 0 0)
(-5.78714 0 0)
(-5.74854 0 0)
(-5.70888 0 0)
(-5.66879 0 0)
(-5.62845 0 0)
(-5.58796 0 0)
(-5.54733 0 0)
(-5.5066 0 0)
(-5.46578 0 0)
(-5.42491 0 0)
(-5.384 0 0)
(-5.34306 0 0)
(-5.30214 0 0)
(-5.26126 0 0)
(-5.22044 0 0)
(-5.17971 0 0)
(-5.13912 0 0)
(-5.09869 0 0)
(-5.05848 0 0)
(-5.01852 0 0)
(-4.97888 0 0)
(-4.93961 0 0)
(-4.90078 0 0)
(-4.86246 0 0)
(-4.82476 0 0)
(-4.78776 0 0)
(-4.75158 0 0)
(-4.71636 0 0)
(-4.68223 0 0)
(-4.64938 0 0)
(-4.61797 0 0)
(-4.58823 0 0)
(-4.56037 0 0)
(-4.53464 0 0)
(-4.51131 0 0)
(-4.49062 0 0)
(-4.47284 0 0)
(-4.4582 0 0)
)
;

boundaryField
{
    leftWall
    {
        type            calculated;
        value           uniform (-5.84939 0 0);
    }
    rightWall
    {
        type            calculated;
        value           uniform (-3.5 0 0);
    }
    lowerWall
    {
        type            empty;
    }
    atmosphere
    {
        type            empty;
    }
    sides
    {
        type            empty;
    }
}


// ************************************************************************* //
