/*--------------------------------*- C++ -*----------------------------------*\
| =========                 |                                                 |
| \\      /  F ield         | OpenFOAM: The Open Source CFD Toolbox           |
|  \\    /   O peration     | Version:  4.1                                   |
|   \\  /    A nd           | Web:      www.OpenFOAM.org                      |
|    \\/     M anipulation  |                                                 |
\*---------------------------------------------------------------------------*/
FoamFile
{
    version     2.0;
    format      ascii;
    class       volVectorField;
    location    "0.25";
    object      HU;
}
// * * * * * * * * * * * * * * * * * * * * * * * * * * * * * * * * * * * * * //

dimensions      [0 2 -1 0 0 0 0];

internalField   nonuniform List<vector> 
40
(
(0 0 0)
(0 0 0)
(0 0 0)
(0 0 0)
(0 0 0)
(0 0 0)
(0 0 0)
(0 0 0)
(0 0 0)
(0 0 0)
(0 0 0)
(0 0 0)
(0 0 0)
(-0 0 0)
(-0.0203315 0 0)
(-0.120127 0 0)
(-0.331005 0 0)
(-0.655534 0 0)
(-1.06558 0 0)
(-1.52394 0 0)
(-1.99825 0 0)
(-2.46581 0 0)
(-2.91285 0 0)
(-3.33246 0 0)
(-3.72206 0 0)
(-4.08173 0 0)
(-4.41314 0 0)
(-4.71891 0 0)
(-5.00187 0 0)
(-5.26453 0 0)
(-5.50864 0 0)
(-5.73502 0 0)
(-5.94364 0 0)
(-6.13388 0 0)
(-6.30483 0 0)
(-6.45565 0 0)
(-6.58574 0 0)
(-6.69495 0 0)
(-6.78367 0 0)
(-6.85293 0 0)
)
;

boundaryField
{
    leftWall
    {
        type            zeroGradient;
    }
    rightWall
    {
        type            fixedValue;
        value           uniform (-7 0 0);
    }
    lowerWall
    {
        type            empty;
    }
    atmosphere
    {
        type            empty;
    }
    sides
    {
        type            empty;
    }
}


// ************************************************************************* //
