/*--------------------------------*- C++ -*----------------------------------*\
| =========                 |                                                 |
| \\      /  F ield         | OpenFOAM: The Open Source CFD Toolbox           |
|  \\    /   O peration     | Version:  4.1                                   |
|   \\  /    A nd           | Web:      www.OpenFOAM.org                      |
|    \\/     M anipulation  |                                                 |
\*---------------------------------------------------------------------------*/
FoamFile
{
    version     2.0;
    format      ascii;
    class       volVectorField;
    location    "0.25";
    object      U;
}
// * * * * * * * * * * * * * * * * * * * * * * * * * * * * * * * * * * * * * //

dimensions      [0 1 -1 0 0 0 0];

internalField   nonuniform List<vector> 
40
(
(0 0 0)
(0 0 0)
(0 0 0)
(0 0 0)
(0 0 0)
(0 0 0)
(0 0 0)
(0 0 0)
(0 0 0)
(0 0 0)
(0 0 0)
(0 0 0)
(0 0 0)
(-0 0 0)
(-3.36676 0 0)
(-4.78518 0 0)
(-5.67887 0 0)
(-6.28091 0 0)
(-6.68929 0 0)
(-6.95629 0 0)
(-7.11643 0 0)
(-7.19422 0 0)
(-7.2078 0 0)
(-7.17101 0 0)
(-7.09482 0 0)
(-6.98814 0 0)
(-6.8582 0 0)
(-6.71094 0 0)
(-6.55112 0 0)
(-6.38256 0 0)
(-6.20825 0 0)
(-6.03054 0 0)
(-5.8513 0 0)
(-5.67213 0 0)
(-5.49453 0 0)
(-5.32009 0 0)
(-5.15057 0 0)
(-4.98802 0 0)
(-4.83488 0 0)
(-4.69406 0 0)
)
;

boundaryField
{
    leftWall
    {
        type            calculated;
        value           uniform (0 0 0);
    }
    rightWall
    {
        type            calculated;
        value           uniform (-3.5 0 0);
    }
    lowerWall
    {
        type            empty;
    }
    atmosphere
    {
        type            empty;
    }
    sides
    {
        type            empty;
    }
}


// ************************************************************************* //
