/*--------------------------------*- C++ -*----------------------------------*\
| =========                 |                                                 |
| \\      /  F ield         | OpenFOAM: The Open Source CFD Toolbox           |
|  \\    /   O peration     | Version:  4.1                                   |
|   \\  /    A nd           | Web:      www.OpenFOAM.org                      |
|    \\/     M anipulation  |                                                 |
\*---------------------------------------------------------------------------*/
FoamFile
{
    version     2.0;
    format      ascii;
    class       volVectorField;
    location    "1.05";
    object      HU;
}
// * * * * * * * * * * * * * * * * * * * * * * * * * * * * * * * * * * * * * //

dimensions      [0 2 -1 0 0 0 0];

internalField   nonuniform List<vector> 
40
(
(-5.52285 0 0)
(-5.57062 0 0)
(-5.62837 0 0)
(-5.68798 0 0)
(-5.74732 0 0)
(-5.80584 0 0)
(-5.8634 0 0)
(-5.91992 0 0)
(-5.97535 0 0)
(-6.02966 0 0)
(-6.0828 0 0)
(-6.13475 0 0)
(-6.18545 0 0)
(-6.23487 0 0)
(-6.28298 0 0)
(-6.32975 0 0)
(-6.37512 0 0)
(-6.41908 0 0)
(-6.46159 0 0)
(-6.50261 0 0)
(-6.54212 0 0)
(-6.58007 0 0)
(-6.61645 0 0)
(-6.65122 0 0)
(-6.68435 0 0)
(-6.71581 0 0)
(-6.7456 0 0)
(-6.77367 0 0)
(-6.80003 0 0)
(-6.82465 0 0)
(-6.84753 0 0)
(-6.86866 0 0)
(-6.88807 0 0)
(-6.90575 0 0)
(-6.92174 0 0)
(-6.93609 0 0)
(-6.94883 0 0)
(-6.96005 0 0)
(-6.9698 0 0)
(-6.97817 0 0)
)
;

boundaryField
{
    leftWall
    {
        type            zeroGradient;
    }
    rightWall
    {
        type            fixedValue;
        value           uniform (-7 0 0);
    }
    lowerWall
    {
        type            empty;
    }
    atmosphere
    {
        type            empty;
    }
    sides
    {
        type            empty;
    }
}


// ************************************************************************* //
