/*--------------------------------*- C++ -*----------------------------------*\
| =========                 |                                                 |
| \\      /  F ield         | OpenFOAM: The Open Source CFD Toolbox           |
|  \\    /   O peration     | Version:  4.1                                   |
|   \\  /    A nd           | Web:      www.OpenFOAM.org                      |
|    \\/     M anipulation  |                                                 |
\*---------------------------------------------------------------------------*/
FoamFile
{
    version     2.0;
    format      ascii;
    class       volVectorField;
    location    "1.05";
    object      U;
}
// * * * * * * * * * * * * * * * * * * * * * * * * * * * * * * * * * * * * * //

dimensions      [0 1 -1 0 0 0 0];

internalField   nonuniform List<vector> 
40
(
(-6.23676 0 0)
(-6.20202 0 0)
(-6.158 0 0)
(-6.11138 0 0)
(-6.06381 0 0)
(-6.01572 0 0)
(-5.96722 0 0)
(-5.91838 0 0)
(-5.86924 0 0)
(-5.81982 0 0)
(-5.77015 0 0)
(-5.72027 0 0)
(-5.6702 0 0)
(-5.61998 0 0)
(-5.56965 0 0)
(-5.51922 0 0)
(-5.46875 0 0)
(-5.41827 0 0)
(-5.36782 0 0)
(-5.31744 0 0)
(-5.26718 0 0)
(-5.2171 0 0)
(-5.16725 0 0)
(-5.11769 0 0)
(-5.06851 0 0)
(-5.01978 0 0)
(-4.9716 0 0)
(-4.92409 0 0)
(-4.87736 0 0)
(-4.83155 0 0)
(-4.78685 0 0)
(-4.74343 0 0)
(-4.70152 0 0)
(-4.66137 0 0)
(-4.62326 0 0)
(-4.58751 0 0)
(-4.55446 0 0)
(-4.52448 0 0)
(-4.49796 0 0)
(-4.47527 0 0)
)
;

boundaryField
{
    leftWall
    {
        type            calculated;
        value           uniform (-6.23676 0 0);
    }
    rightWall
    {
        type            calculated;
        value           uniform (-3.5 0 0);
    }
    lowerWall
    {
        type            empty;
    }
    atmosphere
    {
        type            empty;
    }
    sides
    {
        type            empty;
    }
}


// ************************************************************************* //
