/*--------------------------------*- C++ -*----------------------------------*\
| =========                 |                                                 |
| \\      /  F ield         | OpenFOAM: The Open Source CFD Toolbox           |
|  \\    /   O peration     | Version:  4.1                                   |
|   \\  /    A nd           | Web:      www.OpenFOAM.org                      |
|    \\/     M anipulation  |                                                 |
\*---------------------------------------------------------------------------*/
FoamFile
{
    version     2.0;
    format      ascii;
    class       volVectorField;
    location    "1.25";
    object      HU;
}
// * * * * * * * * * * * * * * * * * * * * * * * * * * * * * * * * * * * * * //

dimensions      [0 2 -1 0 0 0 0];

internalField   nonuniform List<vector> 
40
(
(-5.89597 0 0)
(-5.93057 0 0)
(-5.97354 0 0)
(-6.01864 0 0)
(-6.06376 0 0)
(-6.10828 0 0)
(-6.152 0 0)
(-6.19486 0 0)
(-6.23681 0 0)
(-6.27782 0 0)
(-6.31787 0 0)
(-6.35694 0 0)
(-6.395 0 0)
(-6.43204 0 0)
(-6.46803 0 0)
(-6.50295 0 0)
(-6.53679 0 0)
(-6.56951 0 0)
(-6.60112 0 0)
(-6.63157 0 0)
(-6.66087 0 0)
(-6.68898 0 0)
(-6.7159 0 0)
(-6.74161 0 0)
(-6.76609 0 0)
(-6.78933 0 0)
(-6.81131 0 0)
(-6.83204 0 0)
(-6.8515 0 0)
(-6.86968 0 0)
(-6.8866 0 0)
(-6.90224 0 0)
(-6.91664 0 0)
(-6.92979 0 0)
(-6.94173 0 0)
(-6.95249 0 0)
(-6.96209 0 0)
(-6.97059 0 0)
(-6.97804 0 0)
(-6.98449 0 0)
)
;

boundaryField
{
    leftWall
    {
        type            zeroGradient;
    }
    rightWall
    {
        type            fixedValue;
        value           uniform (-7 0 0);
    }
    lowerWall
    {
        type            empty;
    }
    atmosphere
    {
        type            empty;
    }
    sides
    {
        type            empty;
    }
}


// ************************************************************************* //
