/*--------------------------------*- C++ -*----------------------------------*\
| =========                 |                                                 |
| \\      /  F ield         | OpenFOAM: The Open Source CFD Toolbox           |
|  \\    /   O peration     | Version:  4.1                                   |
|   \\  /    A nd           | Web:      www.OpenFOAM.org                      |
|    \\/     M anipulation  |                                                 |
\*---------------------------------------------------------------------------*/
FoamFile
{
    version     2.0;
    format      ascii;
    class       volVectorField;
    location    "1.25";
    object      U;
}
// * * * * * * * * * * * * * * * * * * * * * * * * * * * * * * * * * * * * * //

dimensions      [0 1 -1 0 0 0 0];

internalField   nonuniform List<vector> 
40
(
(-5.91638 0 0)
(-5.88834 0 0)
(-5.85115 0 0)
(-5.81107 0 0)
(-5.76997 0 0)
(-5.72844 0 0)
(-5.68664 0 0)
(-5.64466 0 0)
(-5.60253 0 0)
(-5.56027 0 0)
(-5.5179 0 0)
(-5.47546 0 0)
(-5.43295 0 0)
(-5.3904 0 0)
(-5.34785 0 0)
(-5.30531 0 0)
(-5.26282 0 0)
(-5.22041 0 0)
(-5.17812 0 0)
(-5.13598 0 0)
(-5.09404 0 0)
(-5.05234 0 0)
(-5.01094 0 0)
(-4.96991 0 0)
(-4.92931 0 0)
(-4.88921 0 0)
(-4.84971 0 0)
(-4.81092 0 0)
(-4.77294 0 0)
(-4.73591 0 0)
(-4.69998 0 0)
(-4.66532 0 0)
(-4.63212 0 0)
(-4.60061 0 0)
(-4.57101 0 0)
(-4.54358 0 0)
(-4.5186 0 0)
(-4.49635 0 0)
(-4.4771 0 0)
(-4.4611 0 0)
)
;

boundaryField
{
    leftWall
    {
        type            calculated;
        value           uniform (-5.91638 0 0);
    }
    rightWall
    {
        type            calculated;
        value           uniform (-3.5 0 0);
    }
    lowerWall
    {
        type            empty;
    }
    atmosphere
    {
        type            empty;
    }
    sides
    {
        type            empty;
    }
}


// ************************************************************************* //
