/*--------------------------------*- C++ -*----------------------------------*\
| =========                 |                                                 |
| \\      /  F ield         | OpenFOAM: The Open Source CFD Toolbox           |
|  \\    /   O peration     | Version:  4.1                                   |
|   \\  /    A nd           | Web:      www.OpenFOAM.org                      |
|    \\/     M anipulation  |                                                 |
\*---------------------------------------------------------------------------*/
FoamFile
{
    version     2.0;
    format      ascii;
    class       volVectorField;
    location    "0.6";
    object      HU;
}
// * * * * * * * * * * * * * * * * * * * * * * * * * * * * * * * * * * * * * //

dimensions      [0 2 -1 0 0 0 0];

internalField   nonuniform List<vector> 
40
(
(-3.48159 0 0)
(-3.62169 0 0)
(-3.75719 0 0)
(-3.88825 0 0)
(-4.01604 0 0)
(-4.14148 0 0)
(-4.26516 0 0)
(-4.38745 0 0)
(-4.50853 0 0)
(-4.62846 0 0)
(-4.74719 0 0)
(-4.86463 0 0)
(-4.98064 0 0)
(-5.09505 0 0)
(-5.20769 0 0)
(-5.31836 0 0)
(-5.42688 0 0)
(-5.53304 0 0)
(-5.63666 0 0)
(-5.73755 0 0)
(-5.83551 0 0)
(-5.93035 0 0)
(-6.02191 0 0)
(-6.11 0 0)
(-6.19445 0 0)
(-6.27511 0 0)
(-6.35182 0 0)
(-6.42444 0 0)
(-6.49284 0 0)
(-6.55691 0 0)
(-6.61654 0 0)
(-6.67165 0 0)
(-6.72217 0 0)
(-6.76805 0 0)
(-6.80928 0 0)
(-6.84588 0 0)
(-6.8779 0 0)
(-6.90546 0 0)
(-6.92877 0 0)
(-6.94808 0 0)
)
;

boundaryField
{
    leftWall
    {
        type            zeroGradient;
    }
    rightWall
    {
        type            fixedValue;
        value           uniform (-7 0 0);
    }
    lowerWall
    {
        type            empty;
    }
    atmosphere
    {
        type            empty;
    }
    sides
    {
        type            empty;
    }
}


// ************************************************************************* //
