/*--------------------------------*- C++ -*----------------------------------*\
| =========                 |                                                 |
| \\      /  F ield         | OpenFOAM: The Open Source CFD Toolbox           |
|  \\    /   O peration     | Version:  4.1                                   |
|   \\  /    A nd           | Web:      www.OpenFOAM.org                      |
|    \\/     M anipulation  |                                                 |
\*---------------------------------------------------------------------------*/
FoamFile
{
    version     2.0;
    format      ascii;
    class       volVectorField;
    location    "0.6";
    object      U;
}
// * * * * * * * * * * * * * * * * * * * * * * * * * * * * * * * * * * * * * //

dimensions      [0 1 -1 0 0 0 0];

internalField   nonuniform List<vector> 
40
(
(-7.35414 0 0)
(-7.32314 0 0)
(-7.28356 0 0)
(-7.23819 0 0)
(-7.18787 0 0)
(-7.13322 0 0)
(-7.07475 0 0)
(-7.01286 0 0)
(-6.94791 0 0)
(-6.88021 0 0)
(-6.81003 0 0)
(-6.73761 0 0)
(-6.6632 0 0)
(-6.58699 0 0)
(-6.50917 0 0)
(-6.42994 0 0)
(-6.34945 0 0)
(-6.26787 0 0)
(-6.18533 0 0)
(-6.10198 0 0)
(-6.01796 0 0)
(-5.93339 0 0)
(-5.84841 0 0)
(-5.76315 0 0)
(-5.67774 0 0)
(-5.59233 0 0)
(-5.50708 0 0)
(-5.42215 0 0)
(-5.33773 0 0)
(-5.25403 0 0)
(-5.17129 0 0)
(-5.0898 0 0)
(-5.00988 0 0)
(-4.93191 0 0)
(-4.85636 0 0)
(-4.78376 0 0)
(-4.71475 0 0)
(-4.65009 0 0)
(-4.59063 0 0)
(-4.53731 0 0)
)
;

boundaryField
{
    leftWall
    {
        type            calculated;
        value           uniform (-7.35414 0 0);
    }
    rightWall
    {
        type            calculated;
        value           uniform (-3.5 0 0);
    }
    lowerWall
    {
        type            empty;
    }
    atmosphere
    {
        type            empty;
    }
    sides
    {
        type            empty;
    }
}


// ************************************************************************* //
