/*--------------------------------*- C++ -*----------------------------------*\
| =========                 |                                                 |
| \\      /  F ield         | OpenFOAM: The Open Source CFD Toolbox           |
|  \\    /   O peration     | Version:  4.1                                   |
|   \\  /    A nd           | Web:      www.OpenFOAM.org                      |
|    \\/     M anipulation  |                                                 |
\*---------------------------------------------------------------------------*/
FoamFile
{
    version     2.0;
    format      ascii;
    class       volVectorField;
    location    "1.55";
    object      HU;
}
// * * * * * * * * * * * * * * * * * * * * * * * * * * * * * * * * * * * * * //

dimensions      [0 2 -1 0 0 0 0];

internalField   nonuniform List<vector> 
40
(
(-6.23719 0 0)
(-6.26007 0 0)
(-6.28908 0 0)
(-6.32025 0 0)
(-6.35175 0 0)
(-6.38295 0 0)
(-6.41362 0 0)
(-6.44364 0 0)
(-6.473 0 0)
(-6.50165 0 0)
(-6.52959 0 0)
(-6.5568 0 0)
(-6.58327 0 0)
(-6.609 0 0)
(-6.63396 0 0)
(-6.65815 0 0)
(-6.68155 0 0)
(-6.70417 0 0)
(-6.72598 0 0)
(-6.74697 0 0)
(-6.76715 0 0)
(-6.78649 0 0)
(-6.80499 0 0)
(-6.82265 0 0)
(-6.83946 0 0)
(-6.8554 0 0)
(-6.87049 0 0)
(-6.88472 0 0)
(-6.89808 0 0)
(-6.91058 0 0)
(-6.92223 0 0)
(-6.93303 0 0)
(-6.94299 0 0)
(-6.95212 0 0)
(-6.96045 0 0)
(-6.96799 0 0)
(-6.97477 0 0)
(-6.98082 0 0)
(-6.98616 0 0)
(-6.99081 0 0)
)
;

boundaryField
{
    leftWall
    {
        type            zeroGradient;
    }
    rightWall
    {
        type            fixedValue;
        value           uniform (-7 0 0);
    }
    lowerWall
    {
        type            empty;
    }
    atmosphere
    {
        type            empty;
    }
    sides
    {
        type            empty;
    }
}


// ************************************************************************* //
