/*--------------------------------*- C++ -*----------------------------------*\
| =========                 |                                                 |
| \\      /  F ield         | OpenFOAM: The Open Source CFD Toolbox           |
|  \\    /   O peration     | Version:  4.1                                   |
|   \\  /    A nd           | Web:      www.OpenFOAM.org                      |
|    \\/     M anipulation  |                                                 |
\*---------------------------------------------------------------------------*/
FoamFile
{
    version     2.0;
    format      ascii;
    class       volVectorField;
    location    "1.55";
    object      U;
}
// * * * * * * * * * * * * * * * * * * * * * * * * * * * * * * * * * * * * * //

dimensions      [0 1 -1 0 0 0 0];

internalField   nonuniform List<vector> 
40
(
(-5.57187 0 0)
(-5.55122 0 0)
(-5.52218 0 0)
(-5.49002 0 0)
(-5.45663 0 0)
(-5.42274 0 0)
(-5.38864 0 0)
(-5.35443 0 0)
(-5.32017 0 0)
(-5.28587 0 0)
(-5.25157 0 0)
(-5.21728 0 0)
(-5.18302 0 0)
(-5.14881 0 0)
(-5.11467 0 0)
(-5.08062 0 0)
(-5.04671 0 0)
(-5.01294 0 0)
(-4.97936 0 0)
(-4.946 0 0)
(-4.9129 0 0)
(-4.88011 0 0)
(-4.84768 0 0)
(-4.81567 0 0)
(-4.78414 0 0)
(-4.75317 0 0)
(-4.72284 0 0)
(-4.69324 0 0)
(-4.66448 0 0)
(-4.63669 0 0)
(-4.60998 0 0)
(-4.58451 0 0)
(-4.56044 0 0)
(-4.53794 0 0)
(-4.5172 0 0)
(-4.4984 0 0)
(-4.48175 0 0)
(-4.46742 0 0)
(-4.4556 0 0)
(-4.44642 0 0)
)
;

boundaryField
{
    leftWall
    {
        type            calculated;
        value           uniform (-5.57187 0 0);
    }
    rightWall
    {
        type            calculated;
        value           uniform (-3.5 0 0);
    }
    lowerWall
    {
        type            empty;
    }
    atmosphere
    {
        type            empty;
    }
    sides
    {
        type            empty;
    }
}


// ************************************************************************* //
