/*--------------------------------*- C++ -*----------------------------------*\
| =========                 |                                                 |
| \\      /  F ield         | OpenFOAM: The Open Source CFD Toolbox           |
|  \\    /   O peration     | Version:  4.1                                   |
|   \\  /    A nd           | Web:      www.OpenFOAM.org                      |
|    \\/     M anipulation  |                                                 |
\*---------------------------------------------------------------------------*/
FoamFile
{
    version     2.0;
    format      ascii;
    class       volVectorField;
    location    "0.3";
    object      HU;
}
// * * * * * * * * * * * * * * * * * * * * * * * * * * * * * * * * * * * * * //

dimensions      [0 2 -1 0 0 0 0];

internalField   nonuniform List<vector> 
40
(
(0 0 0)
(0 0 0)
(0 0 0)
(0 0 0)
(0 0 0)
(0 0 0)
(0 0 0)
(0 0 0)
(0 0 0)
(-0 0 0)
(-0.0201118 0 0)
(-0.122193 0 0)
(-0.334561 0 0)
(-0.660506 0 0)
(-1.06469 0 0)
(-1.50562 0 0)
(-1.94937 0 0)
(-2.37511 0 0)
(-2.77295 0 0)
(-3.14029 0 0)
(-3.47842 0 0)
(-3.7904 0 0)
(-4.07976 0 0)
(-4.34991 0 0)
(-4.6038 0 0)
(-4.84377 0 0)
(-5.07143 0 0)
(-5.28774 0 0)
(-5.49302 0 0)
(-5.68707 0 0)
(-5.86937 0 0)
(-6.03919 0 0)
(-6.19575 0 0)
(-6.33832 0 0)
(-6.46627 0 0)
(-6.57914 0 0)
(-6.67668 0 0)
(-6.75892 0 0)
(-6.82625 0 0)
(-6.87945 0 0)
)
;

boundaryField
{
    leftWall
    {
        type            zeroGradient;
    }
    rightWall
    {
        type            fixedValue;
        value           uniform (-7 0 0);
    }
    lowerWall
    {
        type            empty;
    }
    atmosphere
    {
        type            empty;
    }
    sides
    {
        type            empty;
    }
}


// ************************************************************************* //
