/*--------------------------------*- C++ -*----------------------------------*\
| =========                 |                                                 |
| \\      /  F ield         | OpenFOAM: The Open Source CFD Toolbox           |
|  \\    /   O peration     | Version:  4.1                                   |
|   \\  /    A nd           | Web:      www.OpenFOAM.org                      |
|    \\/     M anipulation  |                                                 |
\*---------------------------------------------------------------------------*/
FoamFile
{
    version     2.0;
    format      ascii;
    class       volVectorField;
    location    "0.3";
    object      U;
}
// * * * * * * * * * * * * * * * * * * * * * * * * * * * * * * * * * * * * * //

dimensions      [0 1 -1 0 0 0 0];

internalField   nonuniform List<vector> 
40
(
(0 0 0)
(0 0 0)
(0 0 0)
(0 0 0)
(0 0 0)
(0 0 0)
(0 0 0)
(0 0 0)
(0 0 0)
(-0 0 0)
(-3.35727 0 0)
(-4.79468 0 0)
(-5.68071 0 0)
(-6.28246 0 0)
(-6.69814 0 0)
(-6.97711 0 0)
(-7.15341 0 0)
(-7.25135 0 0)
(-7.28894 0 0)
(-7.27973 0 0)
(-7.23413 0 0)
(-7.16024 0 0)
(-7.06447 0 0)
(-6.95189 0 0)
(-6.82654 0 0)
(-6.69161 0 0)
(-6.54959 0 0)
(-6.40243 0 0)
(-6.25161 0 0)
(-6.09836 0 0)
(-5.94367 0 0)
(-5.78845 0 0)
(-5.63358 0 0)
(-5.47999 0 0)
(-5.32868 0 0)
(-5.1808 0 0)
(-5.03767 0 0)
(-4.90092 0 0)
(-4.77251 0 0)
(-4.65484 0 0)
)
;

boundaryField
{
    leftWall
    {
        type            calculated;
        value           uniform (0 0 0);
    }
    rightWall
    {
        type            calculated;
        value           uniform (-3.5 0 0);
    }
    lowerWall
    {
        type            empty;
    }
    atmosphere
    {
        type            empty;
    }
    sides
    {
        type            empty;
    }
}


// ************************************************************************* //
