/*--------------------------------*- C++ -*----------------------------------*\
| =========                 |                                                 |
| \\      /  F ield         | OpenFOAM: The Open Source CFD Toolbox           |
|  \\    /   O peration     | Version:  4.1                                   |
|   \\  /    A nd           | Web:      www.OpenFOAM.org                      |
|    \\/     M anipulation  |                                                 |
\*---------------------------------------------------------------------------*/
FoamFile
{
    version     2.0;
    format      ascii;
    class       volVectorField;
    location    "0.5";
    object      HU;
}
// * * * * * * * * * * * * * * * * * * * * * * * * * * * * * * * * * * * * * //

dimensions      [0 2 -1 0 0 0 0];

internalField   nonuniform List<vector> 
40
(
(-1.72748 0 0)
(-2.10813 0 0)
(-2.4225 0 0)
(-2.70015 0 0)
(-2.946 0 0)
(-3.16567 0 0)
(-3.36463 0 0)
(-3.54779 0 0)
(-3.71926 0 0)
(-3.88225 0 0)
(-4.03913 0 0)
(-4.19157 0 0)
(-4.34068 0 0)
(-4.4871 0 0)
(-4.63118 0 0)
(-4.77302 0 0)
(-4.91256 0 0)
(-5.04964 0 0)
(-5.18403 0 0)
(-5.31549 0 0)
(-5.44372 0 0)
(-5.56844 0 0)
(-5.68936 0 0)
(-5.80619 0 0)
(-5.91866 0 0)
(-6.02649 0 0)
(-6.12942 0 0)
(-6.2272 0 0)
(-6.31956 0 0)
(-6.40629 0 0)
(-6.48715 0 0)
(-6.56196 0 0)
(-6.63055 0 0)
(-6.6928 0 0)
(-6.74863 0 0)
(-6.79804 0 0)
(-6.84108 0 0)
(-6.8779 0 0)
(-6.90876 0 0)
(-6.93403 0 0)
)
;

boundaryField
{
    leftWall
    {
        type            zeroGradient;
    }
    rightWall
    {
        type            fixedValue;
        value           uniform (-7 0 0);
    }
    lowerWall
    {
        type            empty;
    }
    atmosphere
    {
        type            empty;
    }
    sides
    {
        type            empty;
    }
}


// ************************************************************************* //
