/*--------------------------------*- C++ -*----------------------------------*\
| =========                 |                                                 |
| \\      /  F ield         | OpenFOAM: The Open Source CFD Toolbox           |
|  \\    /   O peration     | Version:  4.1                                   |
|   \\  /    A nd           | Web:      www.OpenFOAM.org                      |
|    \\/     M anipulation  |                                                 |
\*---------------------------------------------------------------------------*/
FoamFile
{
    version     2.0;
    format      ascii;
    class       surfaceScalarField;
    location    "0.5";
    object      phi;
}
// * * * * * * * * * * * * * * * * * * * * * * * * * * * * * * * * * * * * * //

dimensions      [0 3 -1 0 0 0 0];

internalField   nonuniform List<scalar> 
39
(
-28.7433
-29.178
-29.4444
-29.5761
-29.6046
-29.5539
-29.4418
-29.2809
-29.0806
-28.8479
-28.588
-28.3053
-28.0031
-27.6843
-27.351
-27.0053
-26.6489
-26.2831
-25.9093
-25.5286
-25.1421
-24.7507
-24.3555
-23.9572
-23.5567
-23.1549
-22.7528
-22.3511
-21.951
-21.5535
-21.1599
-20.7715
-20.39
-20.0175
-19.6562
-19.3089
-18.9791
-18.6707
-18.3884
)
;

boundaryField
{
    leftWall
    {
        type            calculated;
        value           uniform 28.4797;
    }
    rightWall
    {
        type            calculated;
        value           uniform -14;
    }
    lowerWall
    {
        type            empty;
        value           nonuniform 0();
    }
    atmosphere
    {
        type            empty;
        value           nonuniform 0();
    }
    sides
    {
        type            empty;
        value           nonuniform 0();
    }
}


// ************************************************************************* //
