/*--------------------------------*- C++ -*----------------------------------*\
| =========                 |                                                 |
| \\      /  F ield         | OpenFOAM: The Open Source CFD Toolbox           |
|  \\    /   O peration     | Version:  4.1                                   |
|   \\  /    A nd           | Web:      www.OpenFOAM.org                      |
|    \\/     M anipulation  |                                                 |
\*---------------------------------------------------------------------------*/
FoamFile
{
    version     2.0;
    format      ascii;
    class       volVectorField;
    location    "0.5";
    object      U;
}
// * * * * * * * * * * * * * * * * * * * * * * * * * * * * * * * * * * * * * //

dimensions      [0 1 -1 0 0 0 0];

internalField   nonuniform List<vector> 
40
(
(-7.11992 0 0)
(-7.2517 0 0)
(-7.33731 0 0)
(-7.3849 0 0)
(-7.40317 0 0)
(-7.39912 0 0)
(-7.37785 0 0)
(-7.34306 0 0)
(-7.29741 0 0)
(-7.2429 0 0)
(-7.18103 0 0)
(-7.11298 0 0)
(-7.03967 0 0)
(-6.96189 0 0)
(-6.88024 0 0)
(-6.79527 0 0)
(-6.7074 0 0)
(-6.61704 0 0)
(-6.52452 0 0)
(-6.43014 0 0)
(-6.33417 0 0)
(-6.23688 0 0)
(-6.13849 0 0)
(-6.03924 0 0)
(-5.93934 0 0)
(-5.83901 0 0)
(-5.73846 0 0)
(-5.63793 0 0)
(-5.53765 0 0)
(-5.43787 0 0)
(-5.3389 0 0)
(-5.24105 0 0)
(-5.1447 0 0)
(-5.05032 0 0)
(-4.95842 0 0)
(-4.86966 0 0)
(-4.7848 0 0)
(-4.70476 0 0)
(-4.63061 0 0)
(-4.56361 0 0)
)
;

boundaryField
{
    leftWall
    {
        type            calculated;
        value           uniform (-7.11992 0 0);
    }
    rightWall
    {
        type            calculated;
        value           uniform (-3.5 0 0);
    }
    lowerWall
    {
        type            empty;
    }
    atmosphere
    {
        type            empty;
    }
    sides
    {
        type            empty;
    }
}


// ************************************************************************* //
