/*--------------------------------*- C++ -*----------------------------------*\
| =========                 |                                                 |
| \\      /  F ield         | OpenFOAM: The Open Source CFD Toolbox           |
|  \\    /   O peration     | Version:  4.1                                   |
|   \\  /    A nd           | Web:      www.OpenFOAM.org                      |
|    \\/     M anipulation  |                                                 |
\*---------------------------------------------------------------------------*/
FoamFile
{
    version     2.0;
    format      ascii;
    class       volVectorField;
    location    "1.35";
    object      HU;
}
// * * * * * * * * * * * * * * * * * * * * * * * * * * * * * * * * * * * * * //

dimensions      [0 2 -1 0 0 0 0];

internalField   nonuniform List<vector> 
40
(
(-6.03169 0 0)
(-6.06156 0 0)
(-6.099 0 0)
(-6.13862 0 0)
(-6.17838 0 0)
(-6.21765 0 0)
(-6.25621 0 0)
(-6.29399 0 0)
(-6.33095 0 0)
(-6.36706 0 0)
(-6.4023 0 0)
(-6.43666 0 0)
(-6.47012 0 0)
(-6.50266 0 0)
(-6.53426 0 0)
(-6.56492 0 0)
(-6.5946 0 0)
(-6.6233 0 0)
(-6.65101 0 0)
(-6.67769 0 0)
(-6.70335 0 0)
(-6.72796 0 0)
(-6.75152 0 0)
(-6.774 0 0)
(-6.79541 0 0)
(-6.81573 0 0)
(-6.83495 0 0)
(-6.85306 0 0)
(-6.87007 0 0)
(-6.88597 0 0)
(-6.90077 0 0)
(-6.91447 0 0)
(-6.92708 0 0)
(-6.93862 0 0)
(-6.94911 0 0)
(-6.95858 0 0)
(-6.96705 0 0)
(-6.97457 0 0)
(-6.98118 0 0)
(-6.98692 0 0)
)
;

boundaryField
{
    leftWall
    {
        type            zeroGradient;
    }
    rightWall
    {
        type            fixedValue;
        value           uniform (-7 0 0);
    }
    lowerWall
    {
        type            empty;
    }
    atmosphere
    {
        type            empty;
    }
    sides
    {
        type            empty;
    }
}


// ************************************************************************* //
