/*--------------------------------*- C++ -*----------------------------------*\
| =========                 |                                                 |
| \\      /  F ield         | OpenFOAM: The Open Source CFD Toolbox           |
|  \\    /   O peration     | Version:  4.1                                   |
|   \\  /    A nd           | Web:      www.OpenFOAM.org                      |
|    \\/     M anipulation  |                                                 |
\*---------------------------------------------------------------------------*/
FoamFile
{
    version     2.0;
    format      ascii;
    class       surfaceScalarField;
    location    "1.35";
    object      phi;
}
// * * * * * * * * * * * * * * * * * * * * * * * * * * * * * * * * * * * * * //

dimensions      [0 3 -1 0 0 0 0];

internalField   nonuniform List<scalar> 
39
(
-23.0963
-22.9774
-22.8347
-22.6837
-22.5297
-22.3744
-22.2183
-22.0617
-21.9047
-21.7474
-21.5899
-21.4323
-21.2746
-21.117
-20.9595
-20.8023
-20.6455
-20.4892
-20.3335
-20.1787
-20.0248
-19.8721
-19.7208
-19.5712
-19.4236
-19.2782
-19.1355
-18.9959
-18.8598
-18.7279
-18.6006
-18.4788
-18.3631
-18.2544
-18.1537
-18.0618
-17.9797
-17.9084
-17.8488
)
;

boundaryField
{
    leftWall
    {
        type            calculated;
        value           uniform 23.1468;
    }
    rightWall
    {
        type            calculated;
        value           uniform -14;
    }
    lowerWall
    {
        type            empty;
        value           nonuniform 0();
    }
    atmosphere
    {
        type            empty;
        value           nonuniform 0();
    }
    sides
    {
        type            empty;
        value           nonuniform 0();
    }
}


// ************************************************************************* //
