/*--------------------------------*- C++ -*----------------------------------*\
| =========                 |                                                 |
| \\      /  F ield         | OpenFOAM: The Open Source CFD Toolbox           |
|  \\    /   O peration     | Version:  4.1                                   |
|   \\  /    A nd           | Web:      www.OpenFOAM.org                      |
|    \\/     M anipulation  |                                                 |
\*---------------------------------------------------------------------------*/
FoamFile
{
    version     2.0;
    format      ascii;
    class       volVectorField;
    location    "1.35";
    object      U;
}
// * * * * * * * * * * * * * * * * * * * * * * * * * * * * * * * * * * * * * //

dimensions      [0 1 -1 0 0 0 0];

internalField   nonuniform List<vector> 
40
(
(-5.78671 0 0)
(-5.76145 0 0)
(-5.72726 0 0)
(-5.69007 0 0)
(-5.65179 0 0)
(-5.61307 0 0)
(-5.57412 0 0)
(-5.53502 0 0)
(-5.49581 0 0)
(-5.45652 0 0)
(-5.41717 0 0)
(-5.37777 0 0)
(-5.33836 0 0)
(-5.29894 0 0)
(-5.25955 0 0)
(-5.22021 0 0)
(-5.18095 0 0)
(-5.1418 0 0)
(-5.1028 0 0)
(-5.06397 0 0)
(-5.02537 0 0)
(-4.98703 0 0)
(-4.94903 0 0)
(-4.9114 0 0)
(-4.87422 0 0)
(-4.83757 0 0)
(-4.80154 0 0)
(-4.76622 0 0)
(-4.73172 0 0)
(-4.69818 0 0)
(-4.66574 0 0)
(-4.63456 0 0)
(-4.60482 0 0)
(-4.57673 0 0)
(-4.55049 0 0)
(-4.52635 0 0)
(-4.50454 0 0)
(-4.48531 0 0)
(-4.4689 0 0)
(-4.45551 0 0)
)
;

boundaryField
{
    leftWall
    {
        type            calculated;
        value           uniform (-5.78671 0 0);
    }
    rightWall
    {
        type            calculated;
        value           uniform (-3.5 0 0);
    }
    lowerWall
    {
        type            empty;
    }
    atmosphere
    {
        type            empty;
    }
    sides
    {
        type            empty;
    }
}


// ************************************************************************* //
