/*--------------------------------*- C++ -*----------------------------------*\
| =========                 |                                                 |
| \\      /  F ield         | OpenFOAM: The Open Source CFD Toolbox           |
|  \\    /   O peration     | Version:  4.1                                   |
|   \\  /    A nd           | Web:      www.OpenFOAM.org                      |
|    \\/     M anipulation  |                                                 |
\*---------------------------------------------------------------------------*/
FoamFile
{
    version     2.0;
    format      ascii;
    class       volScalarField;
    location    "0.45";
    object      H;
}
// * * * * * * * * * * * * * * * * * * * * * * * * * * * * * * * * * * * * * //

dimensions      [0 1 0 0 0 0 0];

internalField   nonuniform List<scalar> 
40
(
0.0566923
0.103725
0.153388
0.203892
0.252472
0.297679
0.339063
0.376847
0.41163
0.444164
0.475189
0.505354
0.535179
0.565058
0.595278
0.626038
0.657472
0.689659
0.722643
0.756442
0.791054
0.82646
0.862635
0.899544
0.937145
0.975389
1.01422
1.05357
1.09336
1.1335
1.17388
1.21436
1.25478
1.29493
1.33457
1.3734
1.41103
1.44701
1.48082
1.51183
)
;

boundaryField
{
    leftWall
    {
        type            zeroGradient;
    }
    rightWall
    {
        type            fixedValue;
        value           uniform 2;
    }
    lowerWall
    {
        type            empty;
    }
    atmosphere
    {
        type            empty;
    }
    sides
    {
        type            empty;
    }
}


// ************************************************************************* //
