/*--------------------------------*- C++ -*----------------------------------*\
| =========                 |                                                 |
| \\      /  F ield         | OpenFOAM: The Open Source CFD Toolbox           |
|  \\    /   O peration     | Version:  4.1                                   |
|   \\  /    A nd           | Web:      www.OpenFOAM.org                      |
|    \\/     M anipulation  |                                                 |
\*---------------------------------------------------------------------------*/
FoamFile
{
    version     2.0;
    format      ascii;
    class       volVectorField;
    location    "0.45";
    object      HU;
}
// * * * * * * * * * * * * * * * * * * * * * * * * * * * * * * * * * * * * * //

dimensions      [0 2 -1 0 0 0 0];

internalField   nonuniform List<vector> 
40
(
(-0.321188 0 0)
(-0.647141 0 0)
(-1.02129 0 0)
(-1.41705 0 0)
(-1.80443 0 0)
(-2.16535 0 0)
(-2.49192 0 0)
(-2.78337 0 0)
(-3.0432 0 0)
(-3.27677 0 0)
(-3.48972 0 0)
(-3.68708 0 0)
(-3.87293 0 0)
(-4.05035 0 0)
(-4.22151 0 0)
(-4.38789 0 0)
(-4.55037 0 0)
(-4.70944 0 0)
(-4.86526 0 0)
(-5.0178 0 0)
(-5.16686 0 0)
(-5.31217 0 0)
(-5.45339 0 0)
(-5.59018 0 0)
(-5.72216 0 0)
(-5.84897 0 0)
(-5.97026 0 0)
(-6.08569 0 0)
(-6.19494 0 0)
(-6.29769 0 0)
(-6.39367 0 0)
(-6.48261 0 0)
(-6.56428 0 0)
(-6.63848 0 0)
(-6.70507 0 0)
(-6.76397 0 0)
(-6.81516 0 0)
(-6.85881 0 0)
(-6.8952 0 0)
(-6.92482 0 0)
)
;

boundaryField
{
    leftWall
    {
        type            zeroGradient;
    }
    rightWall
    {
        type            fixedValue;
        value           uniform (-7 0 0);
    }
    lowerWall
    {
        type            empty;
    }
    atmosphere
    {
        type            empty;
    }
    sides
    {
        type            empty;
    }
}


// ************************************************************************* //
