/*--------------------------------*- C++ -*----------------------------------*\
| =========                 |                                                 |
| \\      /  F ield         | OpenFOAM: The Open Source CFD Toolbox           |
|  \\    /   O peration     | Version:  4.1                                   |
|   \\  /    A nd           | Web:      www.OpenFOAM.org                      |
|    \\/     M anipulation  |                                                 |
\*---------------------------------------------------------------------------*/
FoamFile
{
    version     2.0;
    format      ascii;
    class       volVectorField;
    location    "0.45";
    object      U;
}
// * * * * * * * * * * * * * * * * * * * * * * * * * * * * * * * * * * * * * //

dimensions      [0 1 -1 0 0 0 0];

internalField   nonuniform List<vector> 
40
(
(-5.66546 0 0)
(-6.23899 0 0)
(-6.65819 0 0)
(-6.95 0 0)
(-7.14704 0 0)
(-7.27413 0 0)
(-7.34941 0 0)
(-7.38594 0 0)
(-7.39304 0 0)
(-7.37739 0 0)
(-7.34384 0 0)
(-7.29603 0 0)
(-7.23671 0 0)
(-7.16803 0 0)
(-7.09167 0 0)
(-7.00897 0 0)
(-6.92101 0 0)
(-6.82865 0 0)
(-6.73259 0 0)
(-6.63342 0 0)
(-6.53162 0 0)
(-6.42762 0 0)
(-6.32178 0 0)
(-6.21446 0 0)
(-6.10595 0 0)
(-5.99655 0 0)
(-5.88656 0 0)
(-5.77627 0 0)
(-5.66597 0 0)
(-5.55597 0 0)
(-5.44662 0 0)
(-5.3383 0 0)
(-5.23143 0 0)
(-5.12651 0 0)
(-5.02413 0 0)
(-4.92499 0 0)
(-4.82993 0 0)
(-4.73997 0 0)
(-4.65634 0 0)
(-4.58043 0 0)
)
;

boundaryField
{
    leftWall
    {
        type            calculated;
        value           uniform (-5.66546 0 0);
    }
    rightWall
    {
        type            calculated;
        value           uniform (-3.5 0 0);
    }
    lowerWall
    {
        type            empty;
    }
    atmosphere
    {
        type            empty;
    }
    sides
    {
        type            empty;
    }
}


// ************************************************************************* //
