/*--------------------------------*- C++ -*----------------------------------*\
| =========                 |                                                 |
| \\      /  F ield         | OpenFOAM: The Open Source CFD Toolbox           |
|  \\    /   O peration     | Version:  4.1                                   |
|   \\  /    A nd           | Web:      www.OpenFOAM.org                      |
|    \\/     M anipulation  |                                                 |
\*---------------------------------------------------------------------------*/
FoamFile
{
    version     2.0;
    format      ascii;
    class       volVectorField;
    location    "1.1";
    object      HU;
}
// * * * * * * * * * * * * * * * * * * * * * * * * * * * * * * * * * * * * * //

dimensions      [0 2 -1 0 0 0 0];

internalField   nonuniform List<vector> 
40
(
(-5.632 0 0)
(-5.6759 0 0)
(-5.7294 0 0)
(-5.78485 0 0)
(-5.8401 0 0)
(-5.89459 0 0)
(-5.94815 0 0)
(-6.00071 0 0)
(-6.05223 0 0)
(-6.10267 0 0)
(-6.15201 0 0)
(-6.2002 0 0)
(-6.24721 0 0)
(-6.29302 0 0)
(-6.33759 0 0)
(-6.38089 0 0)
(-6.42288 0 0)
(-6.46355 0 0)
(-6.50286 0 0)
(-6.54077 0 0)
(-6.57727 0 0)
(-6.61232 0 0)
(-6.64589 0 0)
(-6.67797 0 0)
(-6.70853 0 0)
(-6.73755 0 0)
(-6.76501 0 0)
(-6.79088 0 0)
(-6.81517 0 0)
(-6.83787 0 0)
(-6.85896 0 0)
(-6.87846 0 0)
(-6.89637 0 0)
(-6.91272 0 0)
(-6.92752 0 0)
(-6.94082 0 0)
(-6.95265 0 0)
(-6.96308 0 0)
(-6.97216 0 0)
(-6.97997 0 0)
)
;

boundaryField
{
    leftWall
    {
        type            zeroGradient;
    }
    rightWall
    {
        type            fixedValue;
        value           uniform (-7 0 0);
    }
    lowerWall
    {
        type            empty;
    }
    atmosphere
    {
        type            empty;
    }
    sides
    {
        type            empty;
    }
}


// ************************************************************************* //
