/*--------------------------------*- C++ -*----------------------------------*\
| =========                 |                                                 |
| \\      /  F ield         | OpenFOAM: The Open Source CFD Toolbox           |
|  \\    /   O peration     | Version:  4.1                                   |
|   \\  /    A nd           | Web:      www.OpenFOAM.org                      |
|    \\/     M anipulation  |                                                 |
\*---------------------------------------------------------------------------*/
FoamFile
{
    version     2.0;
    format      ascii;
    class       surfaceScalarField;
    location    "1.1";
    object      phi;
}
// * * * * * * * * * * * * * * * * * * * * * * * * * * * * * * * * * * * * * //

dimensions      [0 3 -1 0 0 0 0];

internalField   nonuniform List<scalar> 
39
(
-24.5251
-24.3748
-24.2006
-24.019
-23.8346
-23.6486
-23.4613
-23.2728
-23.0834
-22.8932
-22.7022
-22.5106
-22.3184
-22.1259
-21.9331
-21.7402
-21.5472
-21.3544
-21.1619
-20.9699
-20.7785
-20.5881
-20.3988
-20.2109
-20.0247
-19.8406
-19.6589
-19.4802
-19.305
-19.1338
-18.9674
-18.8066
-18.6522
-18.5054
-18.3671
-18.2388
-18.1217
-18.0172
-17.9267
)
;

boundaryField
{
    leftWall
    {
        type            calculated;
        value           uniform 24.591;
    }
    rightWall
    {
        type            calculated;
        value           uniform -14;
    }
    lowerWall
    {
        type            empty;
        value           nonuniform 0();
    }
    atmosphere
    {
        type            empty;
        value           nonuniform 0();
    }
    sides
    {
        type            empty;
        value           nonuniform 0();
    }
}


// ************************************************************************* //
