/*--------------------------------*- C++ -*----------------------------------*\
| =========                 |                                                 |
| \\      /  F ield         | OpenFOAM: The Open Source CFD Toolbox           |
|  \\    /   O peration     | Version:  4.1                                   |
|   \\  /    A nd           | Web:      www.OpenFOAM.org                      |
|    \\/     M anipulation  |                                                 |
\*---------------------------------------------------------------------------*/
FoamFile
{
    version     2.0;
    format      ascii;
    class       volVectorField;
    location    "1.1";
    object      U;
}
// * * * * * * * * * * * * * * * * * * * * * * * * * * * * * * * * * * * * * //

dimensions      [0 1 -1 0 0 0 0];

internalField   nonuniform List<vector> 
40
(
(-6.14774 0 0)
(-6.11482 0 0)
(-6.07259 0 0)
(-6.02769 0 0)
(-5.98183 0 0)
(-5.93549 0 0)
(-5.8888 0 0)
(-5.84182 0 0)
(-5.79459 0 0)
(-5.74713 0 0)
(-5.69946 0 0)
(-5.65163 0 0)
(-5.60365 0 0)
(-5.55556 0 0)
(-5.50739 0 0)
(-5.45916 0 0)
(-5.41092 0 0)
(-5.36269 0 0)
(-5.31451 0 0)
(-5.26644 0 0)
(-5.2185 0 0)
(-5.17077 0 0)
(-5.12328 0 0)
(-5.07611 0 0)
(-5.02933 0 0)
(-4.98302 0 0)
(-4.93727 0 0)
(-4.89219 0 0)
(-4.84791 0 0)
(-4.80457 0 0)
(-4.76233 0 0)
(-4.72137 0 0)
(-4.68191 0 0)
(-4.64419 0 0)
(-4.60848 0 0)
(-4.57508 0 0)
(-4.54432 0 0)
(-4.51653 0 0)
(-4.49207 0 0)
(-4.47128 0 0)
)
;

boundaryField
{
    leftWall
    {
        type            calculated;
        value           uniform (-6.14774 0 0);
    }
    rightWall
    {
        type            calculated;
        value           uniform (-3.5 0 0);
    }
    lowerWall
    {
        type            empty;
    }
    atmosphere
    {
        type            empty;
    }
    sides
    {
        type            empty;
    }
}


// ************************************************************************* //
