/*--------------------------------*- C++ -*----------------------------------*\
| =========                 |                                                 |
| \\      /  F ield         | OpenFOAM: The Open Source CFD Toolbox           |
|  \\    /   O peration     | Version:  4.1                                   |
|   \\  /    A nd           | Web:      www.OpenFOAM.org                      |
|    \\/     M anipulation  |                                                 |
\*---------------------------------------------------------------------------*/
FoamFile
{
    version     2.0;
    format      ascii;
    class       volVectorField;
    location    "0.85";
    object      HU;
}
// * * * * * * * * * * * * * * * * * * * * * * * * * * * * * * * * * * * * * //

dimensions      [0 2 -1 0 0 0 0];

internalField   nonuniform List<vector> 
40
(
(-4.92769 0 0)
(-4.99648 0 0)
(-5.07614 0 0)
(-5.1571 0 0)
(-5.23754 0 0)
(-5.31709 0 0)
(-5.39561 0 0)
(-5.47301 0 0)
(-5.54923 0 0)
(-5.62418 0 0)
(-5.69778 0 0)
(-5.76996 0 0)
(-5.84065 0 0)
(-5.90978 0 0)
(-5.97727 0 0)
(-6.04306 0 0)
(-6.10707 0 0)
(-6.16924 0 0)
(-6.2295 0 0)
(-6.2878 0 0)
(-6.34406 0 0)
(-6.39822 0 0)
(-6.45024 0 0)
(-6.50004 0 0)
(-6.54758 0 0)
(-6.5928 0 0)
(-6.63565 0 0)
(-6.67609 0 0)
(-6.71408 0 0)
(-6.74958 0 0)
(-6.78258 0 0)
(-6.81304 0 0)
(-6.84099 0 0)
(-6.86641 0 0)
(-6.88933 0 0)
(-6.9098 0 0)
(-6.92786 0 0)
(-6.94362 0 0)
(-6.95719 0 0)
(-6.96871 0 0)
)
;

boundaryField
{
    leftWall
    {
        type            zeroGradient;
    }
    rightWall
    {
        type            fixedValue;
        value           uniform (-7 0 0);
    }
    lowerWall
    {
        type            empty;
    }
    atmosphere
    {
        type            empty;
    }
    sides
    {
        type            empty;
    }
}


// ************************************************************************* //
