/*--------------------------------*- C++ -*----------------------------------*\
| =========                 |                                                 |
| \\      /  F ield         | OpenFOAM: The Open Source CFD Toolbox           |
|  \\    /   O peration     | Version:  4.1                                   |
|   \\  /    A nd           | Web:      www.OpenFOAM.org                      |
|    \\/     M anipulation  |                                                 |
\*---------------------------------------------------------------------------*/
FoamFile
{
    version     2.0;
    format      ascii;
    class       surfaceScalarField;
    location    "0.85";
    object      phi;
}
// * * * * * * * * * * * * * * * * * * * * * * * * * * * * * * * * * * * * * //

dimensions      [0 3 -1 0 0 0 0];

internalField   nonuniform List<scalar> 
39
(
-26.5885
-26.4024
-26.194
-25.9784
-25.7584
-25.5349
-25.3081
-25.0784
-24.846
-24.6112
-24.3741
-24.135
-23.8942
-23.6518
-23.408
-23.1631
-22.9173
-22.6708
-22.4237
-22.1765
-21.9292
-21.6823
-21.4359
-21.1904
-20.9461
-20.7036
-20.4631
-20.2252
-19.9906
-19.7599
-19.534
-19.3137
-19.1003
-18.8949
-18.6991
-18.5145
-18.3429
-18.1865
-18.0475
)
;

boundaryField
{
    leftWall
    {
        type            calculated;
        value           uniform 26.6728;
    }
    rightWall
    {
        type            calculated;
        value           uniform -14;
    }
    lowerWall
    {
        type            empty;
        value           nonuniform 0();
    }
    atmosphere
    {
        type            empty;
        value           nonuniform 0();
    }
    sides
    {
        type            empty;
        value           nonuniform 0();
    }
}


// ************************************************************************* //
