/*--------------------------------*- C++ -*----------------------------------*\
| =========                 |                                                 |
| \\      /  F ield         | OpenFOAM: The Open Source CFD Toolbox           |
|  \\    /   O peration     | Version:  4.1                                   |
|   \\  /    A nd           | Web:      www.OpenFOAM.org                      |
|    \\/     M anipulation  |                                                 |
\*---------------------------------------------------------------------------*/
FoamFile
{
    version     2.0;
    format      ascii;
    class       volVectorField;
    location    "0.85";
    object      U;
}
// * * * * * * * * * * * * * * * * * * * * * * * * * * * * * * * * * * * * * //

dimensions      [0 1 -1 0 0 0 0];

internalField   nonuniform List<vector> 
40
(
(-6.66821 0 0)
(-6.62606 0 0)
(-6.57515 0 0)
(-6.52185 0 0)
(-6.46734 0 0)
(-6.41187 0 0)
(-6.35557 0 0)
(-6.2985 0 0)
(-6.24072 0 0)
(-6.1823 0 0)
(-6.12329 0 0)
(-6.06376 0 0)
(-6.00376 0 0)
(-5.94334 0 0)
(-5.88255 0 0)
(-5.82146 0 0)
(-5.7601 0 0)
(-5.69854 0 0)
(-5.63683 0 0)
(-5.57504 0 0)
(-5.51321 0 0)
(-5.45141 0 0)
(-5.38973 0 0)
(-5.32822 0 0)
(-5.26698 0 0)
(-5.2061 0 0)
(-5.14568 0 0)
(-5.08585 0 0)
(-5.02675 0 0)
(-4.96854 0 0)
(-4.91141 0 0)
(-4.85557 0 0)
(-4.80129 0 0)
(-4.74885 0 0)
(-4.6986 0 0)
(-4.65094 0 0)
(-4.6063 0 0)
(-4.56517 0 0)
(-4.5281 0 0)
(-4.49563 0 0)
)
;

boundaryField
{
    leftWall
    {
        type            calculated;
        value           uniform (-6.66821 0 0);
    }
    rightWall
    {
        type            calculated;
        value           uniform (-3.5 0 0);
    }
    lowerWall
    {
        type            empty;
    }
    atmosphere
    {
        type            empty;
    }
    sides
    {
        type            empty;
    }
}


// ************************************************************************* //
