/*--------------------------------*- C++ -*----------------------------------*\
| =========                 |                                                 |
| \\      /  F ield         | OpenFOAM: The Open Source CFD Toolbox           |
|  \\    /   O peration     | Version:  4.1                                   |
|   \\  /    A nd           | Web:      www.OpenFOAM.org                      |
|    \\/     M anipulation  |                                                 |
\*---------------------------------------------------------------------------*/
FoamFile
{
    version     2.0;
    format      ascii;
    class       volVectorField;
    location    "1.5";
    object      HU;
}
// * * * * * * * * * * * * * * * * * * * * * * * * * * * * * * * * * * * * * //

dimensions      [0 2 -1 0 0 0 0];

internalField   nonuniform List<vector> 
40
(
(-6.19247 0 0)
(-6.21684 0 0)
(-6.24769 0 0)
(-6.28071 0 0)
(-6.31402 0 0)
(-6.347 0 0)
(-6.37939 0 0)
(-6.41112 0 0)
(-6.44214 0 0)
(-6.47242 0 0)
(-6.50196 0 0)
(-6.53073 0 0)
(-6.55873 0 0)
(-6.58594 0 0)
(-6.61235 0 0)
(-6.63794 0 0)
(-6.66271 0 0)
(-6.68665 0 0)
(-6.70973 0 0)
(-6.73196 0 0)
(-6.75333 0 0)
(-6.77381 0 0)
(-6.79341 0 0)
(-6.81211 0 0)
(-6.82991 0 0)
(-6.8468 0 0)
(-6.86278 0 0)
(-6.87784 0 0)
(-6.89199 0 0)
(-6.90523 0 0)
(-6.91755 0 0)
(-6.92898 0 0)
(-6.93951 0 0)
(-6.94916 0 0)
(-6.95796 0 0)
(-6.96592 0 0)
(-6.97307 0 0)
(-6.97943 0 0)
(-6.98505 0 0)
(-6.98994 0 0)
)
;

boundaryField
{
    leftWall
    {
        type            zeroGradient;
    }
    rightWall
    {
        type            fixedValue;
        value           uniform (-7 0 0);
    }
    lowerWall
    {
        type            empty;
    }
    atmosphere
    {
        type            empty;
    }
    sides
    {
        type            empty;
    }
}


// ************************************************************************* //
