/*--------------------------------*- C++ -*----------------------------------*\
| =========                 |                                                 |
| \\      /  F ield         | OpenFOAM: The Open Source CFD Toolbox           |
|  \\    /   O peration     | Version:  4.1                                   |
|   \\  /    A nd           | Web:      www.OpenFOAM.org                      |
|    \\/     M anipulation  |                                                 |
\*---------------------------------------------------------------------------*/
FoamFile
{
    version     2.0;
    format      ascii;
    class       surfaceScalarField;
    location    "1.5";
    object      phi;
}
// * * * * * * * * * * * * * * * * * * * * * * * * * * * * * * * * * * * * * //

dimensions      [0 3 -1 0 0 0 0];

internalField   nonuniform List<scalar> 
39
(
-22.4398
-22.336
-22.2089
-22.0731
-21.9341
-21.7936
-21.6525
-21.5111
-21.3694
-21.2276
-21.0858
-20.944
-20.8023
-20.6609
-20.5197
-20.3789
-20.2387
-20.099
-19.9602
-19.8223
-19.6855
-19.55
-19.416
-19.2838
-19.1537
-19.0259
-18.9008
-18.7789
-18.6606
-18.5464
-18.4368
-18.3326
-18.2343
-18.1428
-18.0588
-17.9832
-17.9167
-17.8601
-17.8141
)
;

boundaryField
{
    leftWall
    {
        type            calculated;
        value           uniform 22.4832;
    }
    rightWall
    {
        type            calculated;
        value           uniform -14;
    }
    lowerWall
    {
        type            empty;
        value           nonuniform 0();
    }
    atmosphere
    {
        type            empty;
        value           nonuniform 0();
    }
    sides
    {
        type            empty;
        value           nonuniform 0();
    }
}


// ************************************************************************* //
