/*--------------------------------*- C++ -*----------------------------------*\
| =========                 |                                                 |
| \\      /  F ield         | OpenFOAM: The Open Source CFD Toolbox           |
|  \\    /   O peration     | Version:  4.1                                   |
|   \\  /    A nd           | Web:      www.OpenFOAM.org                      |
|    \\/     M anipulation  |                                                 |
\*---------------------------------------------------------------------------*/
FoamFile
{
    version     2.0;
    format      ascii;
    class       volVectorField;
    location    "1.5";
    object      U;
}
// * * * * * * * * * * * * * * * * * * * * * * * * * * * * * * * * * * * * * //

dimensions      [0 1 -1 0 0 0 0];

internalField   nonuniform List<vector> 
40
(
(-5.6208 0 0)
(-5.59911 0 0)
(-5.56888 0 0)
(-5.53555 0 0)
(-5.50102 0 0)
(-5.46602 0 0)
(-5.4308 0 0)
(-5.39547 0 0)
(-5.36007 0 0)
(-5.32464 0 0)
(-5.28918 0 0)
(-5.25372 0 0)
(-5.21828 0 0)
(-5.18288 0 0)
(-5.14755 0 0)
(-5.1123 0 0)
(-5.07716 0 0)
(-5.04217 0 0)
(-5.00735 0 0)
(-4.97275 0 0)
(-4.9384 0 0)
(-4.90435 0 0)
(-4.87065 0 0)
(-4.83736 0 0)
(-4.80455 0 0)
(-4.77228 0 0)
(-4.74066 0 0)
(-4.70976 0 0)
(-4.6797 0 0)
(-4.6506 0 0)
(-4.62259 0 0)
(-4.59582 0 0)
(-4.57047 0 0)
(-4.5467 0 0)
(-4.52471 0 0)
(-4.5047 0 0)
(-4.48688 0 0)
(-4.47145 0 0)
(-4.4586 0 0)
(-4.44847 0 0)
)
;

boundaryField
{
    leftWall
    {
        type            calculated;
        value           uniform (-5.6208 0 0);
    }
    rightWall
    {
        type            calculated;
        value           uniform (-3.5 0 0);
    }
    lowerWall
    {
        type            empty;
    }
    atmosphere
    {
        type            empty;
    }
    sides
    {
        type            empty;
    }
}


// ************************************************************************* //
