/*--------------------------------*- C++ -*----------------------------------*\
| =========                 |                                                 |
| \\      /  F ield         | OpenFOAM: The Open Source CFD Toolbox           |
|  \\    /   O peration     | Version:  4.1                                   |
|   \\  /    A nd           | Web:      www.OpenFOAM.org                      |
|    \\/     M anipulation  |                                                 |
\*---------------------------------------------------------------------------*/
FoamFile
{
    version     2.0;
    format      ascii;
    class       volVectorField;
    location    "1.15";
    object      HU;
}
// * * * * * * * * * * * * * * * * * * * * * * * * * * * * * * * * * * * * * //

dimensions      [0 2 -1 0 0 0 0];

internalField   nonuniform List<vector> 
40
(
(-5.72959 0 0)
(-5.77004 0 0)
(-5.81968 0 0)
(-5.87135 0 0)
(-5.92289 0 0)
(-5.97373 0 0)
(-6.02368 0 0)
(-6.07267 0 0)
(-6.12068 0 0)
(-6.16765 0 0)
(-6.21357 0 0)
(-6.2584 0 0)
(-6.30211 0 0)
(-6.34469 0 0)
(-6.38609 0 0)
(-6.42629 0 0)
(-6.46527 0 0)
(-6.50299 0 0)
(-6.53944 0 0)
(-6.57458 0 0)
(-6.60839 0 0)
(-6.64086 0 0)
(-6.67194 0 0)
(-6.70164 0 0)
(-6.72992 0 0)
(-6.75677 0 0)
(-6.78218 0 0)
(-6.80613 0 0)
(-6.82861 0 0)
(-6.84963 0 0)
(-6.86917 0 0)
(-6.88724 0 0)
(-6.90385 0 0)
(-6.91902 0 0)
(-6.93276 0 0)
(-6.94511 0 0)
(-6.95612 0 0)
(-6.96583 0 0)
(-6.9743 0 0)
(-6.98161 0 0)
)
;

boundaryField
{
    leftWall
    {
        type            zeroGradient;
    }
    rightWall
    {
        type            fixedValue;
        value           uniform (-7 0 0);
    }
    lowerWall
    {
        type            empty;
    }
    atmosphere
    {
        type            empty;
    }
    sides
    {
        type            empty;
    }
}


// ************************************************************************* //
