/*--------------------------------*- C++ -*----------------------------------*\
| =========                 |                                                 |
| \\      /  F ield         | OpenFOAM: The Open Source CFD Toolbox           |
|  \\    /   O peration     | Version:  4.1                                   |
|   \\  /    A nd           | Web:      www.OpenFOAM.org                      |
|    \\/     M anipulation  |                                                 |
\*---------------------------------------------------------------------------*/
FoamFile
{
    version     2.0;
    format      ascii;
    class       volVectorField;
    location    "1.15";
    object      U;
}
// * * * * * * * * * * * * * * * * * * * * * * * * * * * * * * * * * * * * * //

dimensions      [0 1 -1 0 0 0 0];

internalField   nonuniform List<vector> 
40
(
(-6.06506 0 0)
(-6.03385 0 0)
(-5.99337 0 0)
(-5.95013 0 0)
(-5.90593 0 0)
(-5.86127 0 0)
(-5.8163 0 0)
(-5.77108 0 0)
(-5.72565 0 0)
(-5.68003 0 0)
(-5.63425 0 0)
(-5.58834 0 0)
(-5.54231 0 0)
(-5.4962 0 0)
(-5.45003 0 0)
(-5.40384 0 0)
(-5.35766 0 0)
(-5.31151 0 0)
(-5.26544 0 0)
(-5.21949 0 0)
(-5.17371 0 0)
(-5.12814 0 0)
(-5.08283 0 0)
(-5.03786 0 0)
(-4.99329 0 0)
(-4.94921 0 0)
(-4.90571 0 0)
(-4.86289 0 0)
(-4.82087 0 0)
(-4.7798 0 0)
(-4.73983 0 0)
(-4.70114 0 0)
(-4.66394 0 0)
(-4.62845 0 0)
(-4.59495 0 0)
(-4.56371 0 0)
(-4.53503 0 0)
(-4.50924 0 0)
(-4.48667 0 0)
(-4.46761 0 0)
)
;

boundaryField
{
    leftWall
    {
        type            calculated;
        value           uniform (-6.06506 0 0);
    }
    rightWall
    {
        type            calculated;
        value           uniform (-3.5 0 0);
    }
    lowerWall
    {
        type            empty;
    }
    atmosphere
    {
        type            empty;
    }
    sides
    {
        type            empty;
    }
}


// ************************************************************************* //
