/*--------------------------------*- C++ -*----------------------------------*\
| =========                 |                                                 |
| \\      /  F ield         | OpenFOAM: The Open Source CFD Toolbox           |
|  \\    /   O peration     | Version:  4.1                                   |
|   \\  /    A nd           | Web:      www.OpenFOAM.org                      |
|    \\/     M anipulation  |                                                 |
\*---------------------------------------------------------------------------*/
FoamFile
{
    version     2.0;
    format      ascii;
    class       volVectorField;
    location    "1";
    object      HU;
}
// * * * * * * * * * * * * * * * * * * * * * * * * * * * * * * * * * * * * * //

dimensions      [0 2 -1 0 0 0 0];

internalField   nonuniform List<vector> 
40
(
(-5.40029 0 0)
(-5.45241 0 0)
(-5.51485 0 0)
(-5.57904 0 0)
(-5.64288 0 0)
(-5.70587 0 0)
(-5.76786 0 0)
(-5.82877 0 0)
(-5.88857 0 0)
(-5.94719 0 0)
(-6.0046 0 0)
(-6.06075 0 0)
(-6.11559 0 0)
(-6.16908 0 0)
(-6.22118 0 0)
(-6.27184 0 0)
(-6.32103 0 0)
(-6.3687 0 0)
(-6.41482 0 0)
(-6.45935 0 0)
(-6.50225 0 0)
(-6.54348 0 0)
(-6.58301 0 0)
(-6.62081 0 0)
(-6.65685 0 0)
(-6.69109 0 0)
(-6.7235 0 0)
(-6.75407 0 0)
(-6.78277 0 0)
(-6.80959 0 0)
(-6.83451 0 0)
(-6.85752 0 0)
(-6.87865 0 0)
(-6.89789 0 0)
(-6.91528 0 0)
(-6.93085 0 0)
(-6.94465 0 0)
(-6.95676 0 0)
(-6.96724 0 0)
(-6.97622 0 0)
)
;

boundaryField
{
    leftWall
    {
        type            zeroGradient;
    }
    rightWall
    {
        type            fixedValue;
        value           uniform (-7 0 0);
    }
    lowerWall
    {
        type            empty;
    }
    atmosphere
    {
        type            empty;
    }
    sides
    {
        type            empty;
    }
}


// ************************************************************************* //
