/*--------------------------------*- C++ -*----------------------------------*\
| =========                 |                                                 |
| \\      /  F ield         | OpenFOAM: The Open Source CFD Toolbox           |
|  \\    /   O peration     | Version:  4.1                                   |
|   \\  /    A nd           | Web:      www.OpenFOAM.org                      |
|    \\/     M anipulation  |                                                 |
\*---------------------------------------------------------------------------*/
FoamFile
{
    version     2.0;
    format      ascii;
    class       surfaceScalarField;
    location    "1";
    object      phi;
}
// * * * * * * * * * * * * * * * * * * * * * * * * * * * * * * * * * * * * * //

dimensions      [0 3 -1 0 0 0 0];

internalField   nonuniform List<scalar> 
39
(
-25.2576
-25.0927
-24.9043
-24.7089
-24.5104
-24.3098
-24.1075
-23.9035
-23.6982
-23.4916
-23.2838
-23.0751
-22.8655
-22.6551
-22.4442
-22.2329
-22.0213
-21.8097
-21.5981
-21.3867
-21.1759
-20.9658
-20.7566
-20.5487
-20.3424
-20.138
-19.936
-19.7368
-19.5411
-19.3493
-19.1624
-18.981
-18.8063
-18.6393
-18.4812
-18.3335
-18.1977
-18.0753
-17.9681
)
;

boundaryField
{
    leftWall
    {
        type            calculated;
        value           uniform 25.3308;
    }
    rightWall
    {
        type            calculated;
        value           uniform -14;
    }
    lowerWall
    {
        type            empty;
        value           nonuniform 0();
    }
    atmosphere
    {
        type            empty;
        value           nonuniform 0();
    }
    sides
    {
        type            empty;
        value           nonuniform 0();
    }
}


// ************************************************************************* //
