/*--------------------------------*- C++ -*----------------------------------*\
| =========                 |                                                 |
| \\      /  F ield         | OpenFOAM: The Open Source CFD Toolbox           |
|  \\    /   O peration     | Version:  4.1                                   |
|   \\  /    A nd           | Web:      www.OpenFOAM.org                      |
|    \\/     M anipulation  |                                                 |
\*---------------------------------------------------------------------------*/
FoamFile
{
    version     2.0;
    format      ascii;
    class       volVectorField;
    location    "1";
    object      U;
}
// * * * * * * * * * * * * * * * * * * * * * * * * * * * * * * * * * * * * * //

dimensions      [0 1 -1 0 0 0 0];

internalField   nonuniform List<vector> 
40
(
(-6.33271 0 0)
(-6.2961 0 0)
(-6.25025 0 0)
(-6.20189 0 0)
(-6.15255 0 0)
(-6.10264 0 0)
(-6.05226 0 0)
(-6.00147 0 0)
(-5.9503 0 0)
(-5.8988 0 0)
(-5.84699 0 0)
(-5.79492 0 0)
(-5.74262 0 0)
(-5.69012 0 0)
(-5.63746 0 0)
(-5.58467 0 0)
(-5.53179 0 0)
(-5.47887 0 0)
(-5.42595 0 0)
(-5.37307 0 0)
(-5.32029 0 0)
(-5.26765 0 0)
(-5.21522 0 0)
(-5.16307 0 0)
(-5.11127 0 0)
(-5.05991 0 0)
(-5.00909 0 0)
(-4.95891 0 0)
(-4.90951 0 0)
(-4.86103 0 0)
(-4.81364 0 0)
(-4.76755 0 0)
(-4.72298 0 0)
(-4.68018 0 0)
(-4.63946 0 0)
(-4.60115 0 0)
(-4.56561 0 0)
(-4.53323 0 0)
(-4.50443 0 0)
(-4.47962 0 0)
)
;

boundaryField
{
    leftWall
    {
        type            calculated;
        value           uniform (-6.33271 0 0);
    }
    rightWall
    {
        type            calculated;
        value           uniform (-3.5 0 0);
    }
    lowerWall
    {
        type            empty;
    }
    atmosphere
    {
        type            empty;
    }
    sides
    {
        type            empty;
    }
}


// ************************************************************************* //
