/*--------------------------------*- C++ -*----------------------------------*\
| =========                 |                                                 |
| \\      /  F ield         | OpenFOAM: The Open Source CFD Toolbox           |
|  \\    /   O peration     | Version:  4.1                                   |
|   \\  /    A nd           | Web:      www.OpenFOAM.org                      |
|    \\/     M anipulation  |                                                 |
\*---------------------------------------------------------------------------*/
FoamFile
{
    version     2.0;
    format      ascii;
    class       volVectorField;
    location    "0.35";
    object      HU;
}
// * * * * * * * * * * * * * * * * * * * * * * * * * * * * * * * * * * * * * //

dimensions      [0 2 -1 0 0 0 0];

internalField   nonuniform List<vector> 
40
(
(0 0 0)
(0 0 0)
(0 0 0)
(0 0 0)
(0 0 0)
(-0 0 0)
(-0.0286823 0 0)
(-0.134589 0 0)
(-0.346857 0 0)
(-0.665446 0 0)
(-1.05697 0 0)
(-1.4804 0 0)
(-1.90125 0 0)
(-2.2986 0 0)
(-2.6636 0 0)
(-2.99549 0 0)
(-3.29756 0 0)
(-3.57449 0 0)
(-3.83096 0 0)
(-4.07106 0 0)
(-4.2981 0 0)
(-4.51453 0 0)
(-4.72209 0 0)
(-4.92185 0 0)
(-5.11435 0 0)
(-5.29967 0 0)
(-5.47761 0 0)
(-5.64774 0 0)
(-5.80951 0 0)
(-5.96232 0 0)
(-6.10556 0 0)
(-6.23865 0 0)
(-6.36109 0 0)
(-6.47242 0 0)
(-6.57229 0 0)
(-6.66048 0 0)
(-6.73691 0 0)
(-6.80167 0 0)
(-6.85512 0 0)
(-6.89786 0 0)
)
;

boundaryField
{
    leftWall
    {
        type            zeroGradient;
    }
    rightWall
    {
        type            fixedValue;
        value           uniform (-7 0 0);
    }
    lowerWall
    {
        type            empty;
    }
    atmosphere
    {
        type            empty;
    }
    sides
    {
        type            empty;
    }
}


// ************************************************************************* //
