/*--------------------------------*- C++ -*----------------------------------*\
| =========                 |                                                 |
| \\      /  F ield         | OpenFOAM: The Open Source CFD Toolbox           |
|  \\    /   O peration     | Version:  4.1                                   |
|   \\  /    A nd           | Web:      www.OpenFOAM.org                      |
|    \\/     M anipulation  |                                                 |
\*---------------------------------------------------------------------------*/
FoamFile
{
    version     2.0;
    format      ascii;
    class       surfaceScalarField;
    location    "0.35";
    object      phi;
}
// * * * * * * * * * * * * * * * * * * * * * * * * * * * * * * * * * * * * * //

dimensions      [0 3 -1 0 0 0 0];

internalField   nonuniform List<scalar> 
39
(
0
0
0
0
0
-7.46435
-17.3629
-21.4088
-24.1388
-26.0481
-27.3863
-28.2952
-28.8759
-29.2036
-29.3348
-29.3127
-29.1707
-28.9347
-28.6253
-28.2583
-27.8464
-27.3995
-26.9254
-26.4301
-25.9185
-25.3945
-24.861
-24.3208
-23.7763
-23.2298
-22.6837
-22.1403
-21.6023
-21.0728
-20.555
-20.0533
-19.5724
-19.1185
-18.699
)
;

boundaryField
{
    leftWall
    {
        type            calculated;
        value           uniform 0;
    }
    rightWall
    {
        type            calculated;
        value           uniform -14;
    }
    lowerWall
    {
        type            empty;
        value           nonuniform 0();
    }
    atmosphere
    {
        type            empty;
        value           nonuniform 0();
    }
    sides
    {
        type            empty;
        value           nonuniform 0();
    }
}


// ************************************************************************* //
