/*--------------------------------*- C++ -*----------------------------------*\
| =========                 |                                                 |
| \\      /  F ield         | OpenFOAM: The Open Source CFD Toolbox           |
|  \\    /   O peration     | Version:  4.1                                   |
|   \\  /    A nd           | Web:      www.OpenFOAM.org                      |
|    \\/     M anipulation  |                                                 |
\*---------------------------------------------------------------------------*/
FoamFile
{
    version     2.0;
    format      ascii;
    class       volVectorField;
    location    "0.35";
    object      U;
}
// * * * * * * * * * * * * * * * * * * * * * * * * * * * * * * * * * * * * * //

dimensions      [0 1 -1 0 0 0 0];

internalField   nonuniform List<vector> 
40
(
(0 0 0)
(0 0 0)
(0 0 0)
(0 0 0)
(0 0 0)
(-0 0 0)
(-3.73217 0 0)
(-4.94926 0 0)
(-5.75515 0 0)
(-6.31426 0 0)
(-6.70979 0 0)
(-6.98336 0 0)
(-7.16421 0 0)
(-7.27374 0 0)
(-7.32805 0 0)
(-7.33934 0 0)
(-7.317 0 0)
(-7.26833 0 0)
(-7.19903 0 0)
(-7.11359 0 0)
(-7.01554 0 0)
(-6.90764 0 0)
(-6.79209 0 0)
(-6.67059 0 0)
(-6.54447 0 0)
(-6.4148 0 0)
(-6.28243 0 0)
(-6.14806 0 0)
(-6.01233 0 0)
(-5.87582 0 0)
(-5.7391 0 0)
(-5.60275 0 0)
(-5.46741 0 0)
(-5.33377 0 0)
(-5.20262 0 0)
(-5.0749 0 0)
(-4.95173 0 0)
(-4.83447 0 0)
(-4.72479 0 0)
(-4.62471 0 0)
)
;

boundaryField
{
    leftWall
    {
        type            calculated;
        value           uniform (0 0 0);
    }
    rightWall
    {
        type            calculated;
        value           uniform (-3.5 0 0);
    }
    lowerWall
    {
        type            empty;
    }
    atmosphere
    {
        type            empty;
    }
    sides
    {
        type            empty;
    }
}


// ************************************************************************* //
