/*--------------------------------*- C++ -*----------------------------------*\
| =========                 |                                                 |
| \\      /  F ield         | OpenFOAM: The Open Source CFD Toolbox           |
|  \\    /   O peration     | Version:  4.1                                   |
|   \\  /    A nd           | Web:      www.OpenFOAM.org                      |
|    \\/     M anipulation  |                                                 |
\*---------------------------------------------------------------------------*/
FoamFile
{
    version     2.0;
    format      ascii;
    class       volVectorField;
    location    "0.7";
    object      HU;
}
// * * * * * * * * * * * * * * * * * * * * * * * * * * * * * * * * * * * * * //

dimensions      [0 2 -1 0 0 0 0];

internalField   nonuniform List<vector> 
40
(
(-4.21979 0 0)
(-4.31396 0 0)
(-4.41699 0 0)
(-4.52056 0 0)
(-4.6236 0 0)
(-4.72592 0 0)
(-4.82743 0 0)
(-4.92803 0 0)
(-5.02759 0 0)
(-5.126 0 0)
(-5.22311 0 0)
(-5.3188 0 0)
(-5.41292 0 0)
(-5.50535 0 0)
(-5.59594 0 0)
(-5.68458 0 0)
(-5.77113 0 0)
(-5.85546 0 0)
(-5.93747 0 0)
(-6.01703 0 0)
(-6.09403 0 0)
(-6.16836 0 0)
(-6.23991 0 0)
(-6.30859 0 0)
(-6.37429 0 0)
(-6.43692 0 0)
(-6.49639 0 0)
(-6.55259 0 0)
(-6.60547 0 0)
(-6.65494 0 0)
(-6.70094 0 0)
(-6.74342 0 0)
(-6.78236 0 0)
(-6.81774 0 0)
(-6.84957 0 0)
(-6.8779 0 0)
(-6.90278 0 0)
(-6.92432 0 0)
(-6.9427 0 0)
(-6.95813 0 0)
)
;

boundaryField
{
    leftWall
    {
        type            zeroGradient;
    }
    rightWall
    {
        type            fixedValue;
        value           uniform (-7 0 0);
    }
    lowerWall
    {
        type            empty;
    }
    atmosphere
    {
        type            empty;
    }
    sides
    {
        type            empty;
    }
}


// ************************************************************************* //
