/*--------------------------------*- C++ -*----------------------------------*\
| =========                 |                                                 |
| \\      /  F ield         | OpenFOAM: The Open Source CFD Toolbox           |
|  \\    /   O peration     | Version:  4.1                                   |
|   \\  /    A nd           | Web:      www.OpenFOAM.org                      |
|    \\/     M anipulation  |                                                 |
\*---------------------------------------------------------------------------*/
FoamFile
{
    version     2.0;
    format      ascii;
    class       surfaceScalarField;
    location    "0.7";
    object      phi;
}
// * * * * * * * * * * * * * * * * * * * * * * * * * * * * * * * * * * * * * //

dimensions      [0 3 -1 0 0 0 0];

internalField   nonuniform List<scalar> 
39
(
-28.2301
-28.0381
-27.8246
-27.6008
-27.3686
-27.1288
-26.882
-26.6288
-26.3697
-26.1052
-25.8359
-25.5622
-25.2844
-25.0032
-24.7187
-24.4314
-24.1418
-23.85
-23.5566
-23.2618
-22.966
-22.6695
-22.3729
-22.0764
-21.7806
-21.4858
-21.1927
-20.9019
-20.6139
-20.3296
-20.05
-19.7761
-19.5091
-19.2506
-19.0024
-18.7664
-18.545
-18.3408
-18.1569
)
;

boundaryField
{
    leftWall
    {
        type            calculated;
        value           uniform 28.3183;
    }
    rightWall
    {
        type            calculated;
        value           uniform -14;
    }
    lowerWall
    {
        type            empty;
        value           nonuniform 0();
    }
    atmosphere
    {
        type            empty;
        value           nonuniform 0();
    }
    sides
    {
        type            empty;
        value           nonuniform 0();
    }
}


// ************************************************************************* //
