/*--------------------------------*- C++ -*----------------------------------*\
| =========                 |                                                 |
| \\      /  F ield         | OpenFOAM: The Open Source CFD Toolbox           |
|  \\    /   O peration     | Version:  4.1                                   |
|   \\  /    A nd           | Web:      www.OpenFOAM.org                      |
|    \\/     M anipulation  |                                                 |
\*---------------------------------------------------------------------------*/
FoamFile
{
    version     2.0;
    format      ascii;
    class       volVectorField;
    location    "0.7";
    object      U;
}
// * * * * * * * * * * * * * * * * * * * * * * * * * * * * * * * * * * * * * //

dimensions      [0 1 -1 0 0 0 0];

internalField   nonuniform List<vector> 
40
(
(-7.07957 0 0)
(-7.03547 0 0)
(-6.98357 0 0)
(-6.92873 0 0)
(-6.87167 0 0)
(-6.81263 0 0)
(-6.75177 0 0)
(-6.68923 0 0)
(-6.62515 0 0)
(-6.55968 0 0)
(-6.49293 0 0)
(-6.42502 0 0)
(-6.35606 0 0)
(-6.28616 0 0)
(-6.21542 0 0)
(-6.14393 0 0)
(-6.07179 0 0)
(-5.99909 0 0)
(-5.92592 0 0)
(-5.85236 0 0)
(-5.77852 0 0)
(-5.70447 0 0)
(-5.63031 0 0)
(-5.55614 0 0)
(-5.48208 0 0)
(-5.40822 0 0)
(-5.3347 0 0)
(-5.26166 0 0)
(-5.18926 0 0)
(-5.11768 0 0)
(-5.04713 0 0)
(-4.97787 0 0)
(-4.91017 0 0)
(-4.84439 0 0)
(-4.78093 0 0)
(-4.72025 0 0)
(-4.66292 0 0)
(-4.60955 0 0)
(-4.56086 0 0)
(-4.51757 0 0)
)
;

boundaryField
{
    leftWall
    {
        type            calculated;
        value           uniform (-7.07957 0 0);
    }
    rightWall
    {
        type            calculated;
        value           uniform (-3.5 0 0);
    }
    lowerWall
    {
        type            empty;
    }
    atmosphere
    {
        type            empty;
    }
    sides
    {
        type            empty;
    }
}


// ************************************************************************* //
