/*--------------------------------*- C++ -*----------------------------------*\
| =========                 |                                                 |
| \\      /  F ield         | OpenFOAM: The Open Source CFD Toolbox           |
|  \\    /   O peration     | Version:  4.1                                   |
|   \\  /    A nd           | Web:      www.OpenFOAM.org                      |
|    \\/     M anipulation  |                                                 |
\*---------------------------------------------------------------------------*/
FoamFile
{
    version     2.0;
    format      ascii;
    class       volVectorField;
    location    "1.4";
    object      HU;
}
// * * * * * * * * * * * * * * * * * * * * * * * * * * * * * * * * * * * * * //

dimensions      [0 2 -1 0 0 0 0];

internalField   nonuniform List<vector> 
40
(
(-6.09028 0 0)
(-6.11813 0 0)
(-6.15317 0 0)
(-6.19039 0 0)
(-6.22781 0 0)
(-6.26479 0 0)
(-6.30112 0 0)
(-6.3367 0 0)
(-6.3715 0 0)
(-6.40549 0 0)
(-6.43866 0 0)
(-6.47099 0 0)
(-6.50246 0 0)
(-6.53306 0 0)
(-6.56278 0 0)
(-6.59159 0 0)
(-6.61948 0 0)
(-6.64645 0 0)
(-6.67246 0 0)
(-6.69752 0 0)
(-6.72161 0 0)
(-6.74472 0 0)
(-6.76682 0 0)
(-6.78793 0 0)
(-6.80801 0 0)
(-6.82708 0 0)
(-6.84511 0 0)
(-6.86211 0 0)
(-6.87807 0 0)
(-6.89299 0 0)
(-6.90688 0 0)
(-6.91975 0 0)
(-6.9316 0 0)
(-6.94245 0 0)
(-6.95232 0 0)
(-6.96123 0 0)
(-6.96922 0 0)
(-6.97632 0 0)
(-6.98257 0 0)
(-6.98801 0 0)
)
;

boundaryField
{
    leftWall
    {
        type            zeroGradient;
    }
    rightWall
    {
        type            fixedValue;
        value           uniform (-7 0 0);
    }
    lowerWall
    {
        type            empty;
    }
    atmosphere
    {
        type            empty;
    }
    sides
    {
        type            empty;
    }
}


// ************************************************************************* //
