/*--------------------------------*- C++ -*----------------------------------*\
| =========                 |                                                 |
| \\      /  F ield         | OpenFOAM: The Open Source CFD Toolbox           |
|  \\    /   O peration     | Version:  4.1                                   |
|   \\  /    A nd           | Web:      www.OpenFOAM.org                      |
|    \\/     M anipulation  |                                                 |
\*---------------------------------------------------------------------------*/
FoamFile
{
    version     2.0;
    format      ascii;
    class       volVectorField;
    location    "1.4";
    object      U;
}
// * * * * * * * * * * * * * * * * * * * * * * * * * * * * * * * * * * * * * //

dimensions      [0 1 -1 0 0 0 0];

internalField   nonuniform List<vector> 
40
(
(-5.72793 0 0)
(-5.70394 0 0)
(-5.67114 0 0)
(-5.63529 0 0)
(-5.59833 0 0)
(-5.56091 0 0)
(-5.52327 0 0)
(-5.48549 0 0)
(-5.44763 0 0)
(-5.4097 0 0)
(-5.37172 0 0)
(-5.33372 0 0)
(-5.29571 0 0)
(-5.25772 0 0)
(-5.21977 0 0)
(-5.18188 0 0)
(-5.14408 0 0)
(-5.1064 0 0)
(-5.06888 0 0)
(-5.03155 0 0)
(-4.99446 0 0)
(-4.95764 0 0)
(-4.92116 0 0)
(-4.88507 0 0)
(-4.84945 0 0)
(-4.81435 0 0)
(-4.77988 0 0)
(-4.74613 0 0)
(-4.71321 0 0)
(-4.68124 0 0)
(-4.65038 0 0)
(-4.62076 0 0)
(-4.59258 0 0)
(-4.56603 0 0)
(-4.5413 0 0)
(-4.51863 0 0)
(-4.49824 0 0)
(-4.48037 0 0)
(-4.46522 0 0)
(-4.453 0 0)
)
;

boundaryField
{
    leftWall
    {
        type            calculated;
        value           uniform (-5.72793 0 0);
    }
    rightWall
    {
        type            calculated;
        value           uniform (-3.5 0 0);
    }
    lowerWall
    {
        type            empty;
    }
    atmosphere
    {
        type            empty;
    }
    sides
    {
        type            empty;
    }
}


// ************************************************************************* //
