/*--------------------------------*- C++ -*----------------------------------*\
| =========                 |                                                 |
| \\      /  F ield         | OpenFOAM: The Open Source CFD Toolbox           |
|  \\    /   O peration     | Version:  4.1                                   |
|   \\  /    A nd           | Web:      www.OpenFOAM.org                      |
|    \\/     M anipulation  |                                                 |
\*---------------------------------------------------------------------------*/
FoamFile
{
    version     2.0;
    format      ascii;
    class       volScalarField;
    location    "1.45";
    object      alpha;
}
// * * * * * * * * * * * * * * * * * * * * * * * * * * * * * * * * * * * * * //

dimensions      [0 0 -1 0 0 0 0];

internalField   nonuniform List<scalar> 
40
(
0.0556199
0.0547894
0.0536978
0.0525338
0.051365
0.0502137
0.049087
0.0479872
0.0469145
0.0458687
0.0448494
0.0438563
0.0428888
0.0419466
0.0410295
0.0401369
0.0392687
0.0384247
0.0376046
0.0368084
0.0360359
0.0352873
0.0345625
0.0338618
0.0331855
0.0325339
0.0319075
0.0313071
0.0307334
0.0301873
0.02967
0.0291828
0.0287273
0.0283051
0.027918
0.0275681
0.0272573
0.0269877
0.0267611
0.0265791
)
;

boundaryField
{
    leftWall
    {
        type            calculated;
        value           uniform 0.0556199;
    }
    rightWall
    {
        type            calculated;
        value           uniform 0.0151398;
    }
    lowerWall
    {
        type            empty;
    }
    atmosphere
    {
        type            empty;
    }
    sides
    {
        type            empty;
    }
}


// ************************************************************************* //
