/*--------------------------------*- C++ -*----------------------------------*\
| =========                 |                                                 |
| \\      /  F ield         | OpenFOAM: The Open Source CFD Toolbox           |
|  \\    /   O peration     | Version:  4.1                                   |
|   \\  /    A nd           | Web:      www.OpenFOAM.org                      |
|    \\/     M anipulation  |                                                 |
\*---------------------------------------------------------------------------*/
FoamFile
{
    version     2.0;
    format      ascii;
    class       volVectorField;
    location    "1.45";
    object      HU;
}
// * * * * * * * * * * * * * * * * * * * * * * * * * * * * * * * * * * * * * //

dimensions      [0 2 -1 0 0 0 0];

internalField   nonuniform List<vector> 
40
(
(-6.14367 0 0)
(-6.16969 0 0)
(-6.20254 0 0)
(-6.23757 0 0)
(-6.27285 0 0)
(-6.30775 0 0)
(-6.34202 0 0)
(-6.3756 0 0)
(-6.40842 0 0)
(-6.44048 0 0)
(-6.47176 0 0)
(-6.50223 0 0)
(-6.53189 0 0)
(-6.56072 0 0)
(-6.58871 0 0)
(-6.61584 0 0)
(-6.6421 0 0)
(-6.66748 0 0)
(-6.69196 0 0)
(-6.71554 0 0)
(-6.7382 0 0)
(-6.75994 0 0)
(-6.78073 0 0)
(-6.80058 0 0)
(-6.81947 0 0)
(-6.83739 0 0)
(-6.85435 0 0)
(-6.87033 0 0)
(-6.88535 0 0)
(-6.89939 0 0)
(-6.91246 0 0)
(-6.92457 0 0)
(-6.93573 0 0)
(-6.94595 0 0)
(-6.95526 0 0)
(-6.96367 0 0)
(-6.97122 0 0)
(-6.97794 0 0)
(-6.98386 0 0)
(-6.98901 0 0)
)
;

boundaryField
{
    leftWall
    {
        type            zeroGradient;
    }
    rightWall
    {
        type            fixedValue;
        value           uniform (-7 0 0);
    }
    lowerWall
    {
        type            empty;
    }
    atmosphere
    {
        type            empty;
    }
    sides
    {
        type            empty;
    }
}


// ************************************************************************* //
