/*--------------------------------*- C++ -*----------------------------------*\
| =========                 |                                                 |
| \\      /  F ield         | OpenFOAM: The Open Source CFD Toolbox           |
|  \\    /   O peration     | Version:  4.1                                   |
|   \\  /    A nd           | Web:      www.OpenFOAM.org                      |
|    \\/     M anipulation  |                                                 |
\*---------------------------------------------------------------------------*/
FoamFile
{
    version     2.0;
    format      ascii;
    class       volVectorField;
    location    "1.45";
    object      U;
}
// * * * * * * * * * * * * * * * * * * * * * * * * * * * * * * * * * * * * * //

dimensions      [0 1 -1 0 0 0 0];

internalField   nonuniform List<vector> 
40
(
(-5.67273 0 0)
(-5.64992 0 0)
(-5.61844 0 0)
(-5.58388 0 0)
(-5.54817 0 0)
(-5.51199 0 0)
(-5.47559 0 0)
(-5.43907 0 0)
(-5.40248 0 0)
(-5.36583 0 0)
(-5.32915 0 0)
(-5.29246 0 0)
(-5.25577 0 0)
(-5.21912 0 0)
(-5.18251 0 0)
(-5.14598 0 0)
(-5.10956 0 0)
(-5.07326 0 0)
(-5.03713 0 0)
(-5.00121 0 0)
(-4.96553 0 0)
(-4.93014 0 0)
(-4.89509 0 0)
(-4.86045 0 0)
(-4.82627 0 0)
(-4.79264 0 0)
(-4.75963 0 0)
(-4.72735 0 0)
(-4.69591 0 0)
(-4.66542 0 0)
(-4.63602 0 0)
(-4.60788 0 0)
(-4.58116 0 0)
(-4.55604 0 0)
(-4.53273 0 0)
(-4.51143 0 0)
(-4.49237 0 0)
(-4.47576 0 0)
(-4.4618 0 0)
(-4.45066 0 0)
)
;

boundaryField
{
    leftWall
    {
        type            calculated;
        value           uniform (-5.67273 0 0);
    }
    rightWall
    {
        type            calculated;
        value           uniform (-3.5 0 0);
    }
    lowerWall
    {
        type            empty;
    }
    atmosphere
    {
        type            empty;
    }
    sides
    {
        type            empty;
    }
}


// ************************************************************************* //
