/*--------------------------------*- C++ -*----------------------------------*\
| =========                 |                                                 |
| \\      /  F ield         | OpenFOAM: The Open Source CFD Toolbox           |
|  \\    /   O peration     | Version:  4.1                                   |
|   \\  /    A nd           | Web:      www.OpenFOAM.org                      |
|    \\/     M anipulation  |                                                 |
\*---------------------------------------------------------------------------*/
FoamFile
{
    version     2.0;
    format      ascii;
    class       volVectorField;
    location    "0.8";
    object      HU;
}
// * * * * * * * * * * * * * * * * * * * * * * * * * * * * * * * * * * * * * //

dimensions      [0 2 -1 0 0 0 0];

internalField   nonuniform List<vector> 
40
(
(-4.72449 0 0)
(-4.80039 0 0)
(-4.887 0 0)
(-4.97474 0 0)
(-5.06196 0 0)
(-5.14832 0 0)
(-5.23369 0 0)
(-5.31798 0 0)
(-5.40109 0 0)
(-5.48292 0 0)
(-5.56339 0 0)
(-5.6424 0 0)
(-5.71987 0 0)
(-5.79571 0 0)
(-5.86983 0 0)
(-5.94216 0 0)
(-6.0126 0 0)
(-6.08108 0 0)
(-6.14753 0 0)
(-6.21185 0 0)
(-6.27398 0 0)
(-6.33384 0 0)
(-6.39136 0 0)
(-6.44648 0 0)
(-6.49912 0 0)
(-6.54922 0 0)
(-6.59673 0 0)
(-6.64159 0 0)
(-6.68375 0 0)
(-6.72316 0 0)
(-6.7598 0 0)
(-6.79362 0 0)
(-6.82462 0 0)
(-6.8528 0 0)
(-6.87819 0 0)
(-6.90082 0 0)
(-6.92077 0 0)
(-6.93815 0 0)
(-6.95306 0 0)
(-6.96565 0 0)
)
;

boundaryField
{
    leftWall
    {
        type            zeroGradient;
    }
    rightWall
    {
        type            fixedValue;
        value           uniform (-7 0 0);
    }
    lowerWall
    {
        type            empty;
    }
    atmosphere
    {
        type            empty;
    }
    sides
    {
        type            empty;
    }
}


// ************************************************************************* //
