/*--------------------------------*- C++ -*----------------------------------*\
| =========                 |                                                 |
| \\      /  F ield         | OpenFOAM: The Open Source CFD Toolbox           |
|  \\    /   O peration     | Version:  4.1                                   |
|   \\  /    A nd           | Web:      www.OpenFOAM.org                      |
|    \\/     M anipulation  |                                                 |
\*---------------------------------------------------------------------------*/
FoamFile
{
    version     2.0;
    format      ascii;
    class       volVectorField;
    location    "0.8";
    object      U;
}
// * * * * * * * * * * * * * * * * * * * * * * * * * * * * * * * * * * * * * //

dimensions      [0 1 -1 0 0 0 0];

internalField   nonuniform List<vector> 
40
(
(-6.79746 0 0)
(-6.75387 0 0)
(-6.7018 0 0)
(-6.64728 0 0)
(-6.59134 0 0)
(-6.53423 0 0)
(-6.47605 0 0)
(-6.4169 0 0)
(-6.35685 0 0)
(-6.29598 0 0)
(-6.23436 0 0)
(-6.17207 0 0)
(-6.10917 0 0)
(-6.04573 0 0)
(-5.98181 0 0)
(-5.91748 0 0)
(-5.8528 0 0)
(-5.78783 0 0)
(-5.72263 0 0)
(-5.65728 0 0)
(-5.59182 0 0)
(-5.52635 0 0)
(-5.46093 0 0)
(-5.39564 0 0)
(-5.33057 0 0)
(-5.26583 0 0)
(-5.20153 0 0)
(-5.13778 0 0)
(-5.07474 0 0)
(-5.01257 0 0)
(-4.95147 0 0)
(-4.89167 0 0)
(-4.83342 0 0)
(-4.77703 0 0)
(-4.72288 0 0)
(-4.67137 0 0)
(-4.62299 0 0)
(-4.57826 0 0)
(-4.53776 0 0)
(-4.50211 0 0)
)
;

boundaryField
{
    leftWall
    {
        type            calculated;
        value           uniform (-6.79746 0 0);
    }
    rightWall
    {
        type            calculated;
        value           uniform (-3.5 0 0);
    }
    lowerWall
    {
        type            empty;
    }
    atmosphere
    {
        type            empty;
    }
    sides
    {
        type            empty;
    }
}


// ************************************************************************* //
