/*--------------------------------*- C++ -*----------------------------------*\
| =========                 |                                                 |
| \\      /  F ield         | OpenFOAM: The Open Source CFD Toolbox           |
|  \\    /   O peration     | Version:  4.1                                   |
|   \\  /    A nd           | Web:      www.OpenFOAM.org                      |
|    \\/     M anipulation  |                                                 |
\*---------------------------------------------------------------------------*/
FoamFile
{
    version     2.0;
    format      ascii;
    class       volVectorField;
    location    "1.95";
    object      HU;
}
// * * * * * * * * * * * * * * * * * * * * * * * * * * * * * * * * * * * * * //

dimensions      [0 2 -1 0 0 0 0];

internalField   nonuniform List<vector> 
40
(
(-6.49057 0 0)
(-6.50524 0 0)
(-6.52386 0 0)
(-6.54437 0 0)
(-6.5654 0 0)
(-6.58639 0 0)
(-6.60709 0 0)
(-6.62738 0 0)
(-6.64721 0 0)
(-6.66656 0 0)
(-6.68541 0 0)
(-6.70375 0 0)
(-6.72158 0 0)
(-6.73888 0 0)
(-6.75566 0 0)
(-6.7719 0 0)
(-6.78761 0 0)
(-6.80277 0 0)
(-6.81738 0 0)
(-6.83144 0 0)
(-6.84495 0 0)
(-6.85789 0 0)
(-6.87028 0 0)
(-6.88209 0 0)
(-6.89334 0 0)
(-6.90402 0 0)
(-6.91413 0 0)
(-6.92367 0 0)
(-6.93265 0 0)
(-6.94107 0 0)
(-6.94893 0 0)
(-6.95624 0 0)
(-6.963 0 0)
(-6.96924 0 0)
(-6.97495 0 0)
(-6.98014 0 0)
(-6.98484 0 0)
(-6.98906 0 0)
(-6.9928 0 0)
(-6.99609 0 0)
)
;

boundaryField
{
    leftWall
    {
        type            zeroGradient;
    }
    rightWall
    {
        type            fixedValue;
        value           uniform (-7 0 0);
    }
    lowerWall
    {
        type            empty;
    }
    atmosphere
    {
        type            empty;
    }
    sides
    {
        type            empty;
    }
}


// ************************************************************************* //
