/*--------------------------------*- C++ -*----------------------------------*\
| =========                 |                                                 |
| \\      /  F ield         | OpenFOAM: The Open Source CFD Toolbox           |
|  \\    /   O peration     | Version:  4.1                                   |
|   \\  /    A nd           | Web:      www.OpenFOAM.org                      |
|    \\/     M anipulation  |                                                 |
\*---------------------------------------------------------------------------*/
FoamFile
{
    version     2.0;
    format      ascii;
    class       surfaceScalarField;
    location    "1.95";
    object      phi;
}
// * * * * * * * * * * * * * * * * * * * * * * * * * * * * * * * * * * * * * //

dimensions      [0 3 -1 0 0 0 0];

internalField   nonuniform List<scalar> 
39
(
-21.0235
-20.9521
-20.8601
-20.759
-20.6537
-20.5467
-20.4389
-20.3309
-20.2229
-20.115
-20.0073
-19.8999
-19.793
-19.6865
-19.5805
-19.4753
-19.3708
-19.2672
-19.1647
-19.0633
-18.9633
-18.8649
-18.7681
-18.6734
-18.581
-18.491
-18.404
-18.3202
-18.2399
-18.1638
-18.0922
-18.0255
-17.9644
-17.9093
-17.8608
-17.8194
-17.7855
-17.7595
-17.7419
)
;

boundaryField
{
    leftWall
    {
        type            calculated;
        value           uniform 21.0522;
    }
    rightWall
    {
        type            calculated;
        value           uniform -14;
    }
    lowerWall
    {
        type            empty;
        value           nonuniform 0();
    }
    atmosphere
    {
        type            empty;
        value           nonuniform 0();
    }
    sides
    {
        type            empty;
        value           nonuniform 0();
    }
}


// ************************************************************************* //
