/*--------------------------------*- C++ -*----------------------------------*\
| =========                 |                                                 |
| \\      /  F ield         | OpenFOAM: The Open Source CFD Toolbox           |
|  \\    /   O peration     | Version:  4.1                                   |
|   \\  /    A nd           | Web:      www.OpenFOAM.org                      |
|    \\/     M anipulation  |                                                 |
\*---------------------------------------------------------------------------*/
FoamFile
{
    version     2.0;
    format      ascii;
    class       volVectorField;
    location    "1.95";
    object      U;
}
// * * * * * * * * * * * * * * * * * * * * * * * * * * * * * * * * * * * * * //

dimensions      [0 1 -1 0 0 0 0];

internalField   nonuniform List<vector> 
40
(
(-5.26304 0 0)
(-5.24873 0 0)
(-5.2273 0 0)
(-5.20273 0 0)
(-5.17674 0 0)
(-5.15012 0 0)
(-5.12323 0 0)
(-5.09624 0 0)
(-5.06922 0 0)
(-5.04222 0 0)
(-5.01526 0 0)
(-4.98838 0 0)
(-4.96158 0 0)
(-4.9349 0 0)
(-4.90834 0 0)
(-4.88194 0 0)
(-4.85571 0 0)
(-4.8297 0 0)
(-4.80392 0 0)
(-4.77842 0 0)
(-4.75324 0 0)
(-4.72842 0 0)
(-4.70401 0 0)
(-4.68006 0 0)
(-4.65665 0 0)
(-4.63383 0 0)
(-4.61169 0 0)
(-4.5903 0 0)
(-4.56977 0 0)
(-4.5502 0 0)
(-4.5317 0 0)
(-4.51438 0 0)
(-4.49838 0 0)
(-4.48382 0 0)
(-4.47083 0 0)
(-4.45956 0 0)
(-4.45012 0 0)
(-4.44262 0 0)
(-4.43715 0 0)
(-4.43377 0 0)
)
;

boundaryField
{
    leftWall
    {
        type            calculated;
        value           uniform (-5.26304 0 0);
    }
    rightWall
    {
        type            calculated;
        value           uniform (-3.5 0 0);
    }
    lowerWall
    {
        type            empty;
    }
    atmosphere
    {
        type            empty;
    }
    sides
    {
        type            empty;
    }
}


// ************************************************************************* //
