/*--------------------------------*- C++ -*----------------------------------*\
| =========                 |                                                 |
| \\      /  F ield         | OpenFOAM: The Open Source CFD Toolbox           |
|  \\    /   O peration     | Version:  4.1                                   |
|   \\  /    A nd           | Web:      www.OpenFOAM.org                      |
|    \\/     M anipulation  |                                                 |
\*---------------------------------------------------------------------------*/
FoamFile
{
    version     2.0;
    format      ascii;
    class       volVectorField;
    location    "0.55";
    object      HU;
}
// * * * * * * * * * * * * * * * * * * * * * * * * * * * * * * * * * * * * * //

dimensions      [0 2 -1 0 0 0 0];

internalField   nonuniform List<vector> 
40
(
(-2.84831 0 0)
(-3.06881 0 0)
(-3.25745 0 0)
(-3.42958 0 0)
(-3.58976 0 0)
(-3.74126 0 0)
(-3.88653 0 0)
(-4.02733 0 0)
(-4.16491 0 0)
(-4.30008 0 0)
(-4.43334 0 0)
(-4.56493 0 0)
(-4.69494 0 0)
(-4.8233 0 0)
(-4.94989 0 0)
(-5.07454 0 0)
(-5.19704 0 0)
(-5.31716 0 0)
(-5.43468 0 0)
(-5.54935 0 0)
(-5.66095 0 0)
(-5.76924 0 0)
(-5.874 0 0)
(-5.975 0 0)
(-6.07202 0 0)
(-6.16485 0 0)
(-6.25327 0 0)
(-6.3371 0 0)
(-6.41614 0 0)
(-6.49023 0 0)
(-6.55922 0 0)
(-6.62298 0 0)
(-6.68141 0 0)
(-6.73445 0 0)
(-6.78207 0 0)
(-6.82428 0 0)
(-6.86116 0 0)
(-6.89285 0 0)
(-6.91956 0 0)
(-6.9416 0 0)
)
;

boundaryField
{
    leftWall
    {
        type            zeroGradient;
    }
    rightWall
    {
        type            fixedValue;
        value           uniform (-7 0 0);
    }
    lowerWall
    {
        type            empty;
    }
    atmosphere
    {
        type            empty;
    }
    sides
    {
        type            empty;
    }
}


// ************************************************************************* //
