/*--------------------------------*- C++ -*----------------------------------*\
| =========                 |                                                 |
| \\      /  F ield         | OpenFOAM: The Open Source CFD Toolbox           |
|  \\    /   O peration     | Version:  4.1                                   |
|   \\  /    A nd           | Web:      www.OpenFOAM.org                      |
|    \\/     M anipulation  |                                                 |
\*---------------------------------------------------------------------------*/
FoamFile
{
    version     2.0;
    format      ascii;
    class       surfaceScalarField;
    location    "0.55";
    object      phi;
}
// * * * * * * * * * * * * * * * * * * * * * * * * * * * * * * * * * * * * * //

dimensions      [0 3 -1 0 0 0 0];

internalField   nonuniform List<scalar> 
39
(
-29.6066
-29.5934
-29.5244
-29.4087
-29.2549
-29.0699
-28.8589
-28.6257
-28.3734
-28.1044
-27.8208
-27.5243
-27.2165
-26.8985
-26.5716
-26.2369
-25.8952
-25.5476
-25.1947
-24.8374
-24.4764
-24.1124
-23.746
-23.3779
-23.0089
-22.6394
-22.2704
-21.9026
-21.5368
-21.1741
-20.8155
-20.4624
-20.1164
-19.7791
-19.4529
-19.1403
-18.8443
-18.5686
-18.3171
)
;

boundaryField
{
    leftWall
    {
        type            calculated;
        value           uniform 29.5982;
    }
    rightWall
    {
        type            calculated;
        value           uniform -14;
    }
    lowerWall
    {
        type            empty;
        value           nonuniform 0();
    }
    atmosphere
    {
        type            empty;
        value           nonuniform 0();
    }
    sides
    {
        type            empty;
        value           nonuniform 0();
    }
}


// ************************************************************************* //
