/*--------------------------------*- C++ -*----------------------------------*\
| =========                 |                                                 |
| \\      /  F ield         | OpenFOAM: The Open Source CFD Toolbox           |
|  \\    /   O peration     | Version:  4.1                                   |
|   \\  /    A nd           | Web:      www.OpenFOAM.org                      |
|    \\/     M anipulation  |                                                 |
\*---------------------------------------------------------------------------*/
FoamFile
{
    version     2.0;
    format      ascii;
    class       volVectorField;
    location    "0.55";
    object      U;
}
// * * * * * * * * * * * * * * * * * * * * * * * * * * * * * * * * * * * * * //

dimensions      [0 1 -1 0 0 0 0];

internalField   nonuniform List<vector> 
40
(
(-7.39955 0 0)
(-7.40375 0 0)
(-7.39294 0 0)
(-7.36925 0 0)
(-7.33508 0 0)
(-7.29237 0 0)
(-7.24259 0 0)
(-7.18685 0 0)
(-7.12599 0 0)
(-7.06069 0 0)
(-6.99151 0 0)
(-6.9189 0 0)
(-6.84327 0 0)
(-6.76496 0 0)
(-6.68429 0 0)
(-6.60152 0 0)
(-6.51692 0 0)
(-6.4307 0 0)
(-6.34309 0 0)
(-6.25427 0 0)
(-6.16444 0 0)
(-6.07377 0 0)
(-5.98243 0 0)
(-5.89058 0 0)
(-5.79839 0 0)
(-5.70603 0 0)
(-5.61368 0 0)
(-5.52152 0 0)
(-5.42977 0 0)
(-5.33864 0 0)
(-5.2484 0 0)
(-5.15936 0 0)
(-5.07186 0 0)
(-4.98632 0 0)
(-4.90324 0 0)
(-4.82321 0 0)
(-4.74693 0 0)
(-4.67522 0 0)
(-4.60906 0 0)
(-4.54951 0 0)
)
;

boundaryField
{
    leftWall
    {
        type            calculated;
        value           uniform (-7.39955 0 0);
    }
    rightWall
    {
        type            calculated;
        value           uniform (-3.5 0 0);
    }
    lowerWall
    {
        type            empty;
    }
    atmosphere
    {
        type            empty;
    }
    sides
    {
        type            empty;
    }
}


// ************************************************************************* //
