/*--------------------------------*- C++ -*----------------------------------*\
| =========                 |                                                 |
| \\      /  F ield         | OpenFOAM: The Open Source CFD Toolbox           |
|  \\    /   O peration     | Version:  4.1                                   |
|   \\  /    A nd           | Web:      www.OpenFOAM.org                      |
|    \\/     M anipulation  |                                                 |
\*---------------------------------------------------------------------------*/
FoamFile
{
    version     2.0;
    format      ascii;
    class       volVectorField;
    location    "0.95";
    object      HU;
}
// * * * * * * * * * * * * * * * * * * * * * * * * * * * * * * * * * * * * * //

dimensions      [0 2 -1 0 0 0 0];

internalField   nonuniform List<vector> 
40
(
(-5.26201 0 0)
(-5.31901 0 0)
(-5.38663 0 0)
(-5.45587 0 0)
(-5.52469 0 0)
(-5.59262 0 0)
(-5.65953 0 0)
(-5.72534 0 0)
(-5.79 0 0)
(-5.85345 0 0)
(-5.91563 0 0)
(-5.97649 0 0)
(-6.03598 0 0)
(-6.09405 0 0)
(-6.15065 0 0)
(-6.20573 0 0)
(-6.25924 0 0)
(-6.31113 0 0)
(-6.36135 0 0)
(-6.40987 0 0)
(-6.45663 0 0)
(-6.50159 0 0)
(-6.54472 0 0)
(-6.58597 0 0)
(-6.62531 0 0)
(-6.6627 0 0)
(-6.69811 0 0)
(-6.73151 0 0)
(-6.76288 0 0)
(-6.79219 0 0)
(-6.81944 0 0)
(-6.8446 0 0)
(-6.86769 0 0)
(-6.88872 0 0)
(-6.90771 0 0)
(-6.9247 0 0)
(-6.93974 0 0)
(-6.95291 0 0)
(-6.9643 0 0)
(-6.97403 0 0)
)
;

boundaryField
{
    leftWall
    {
        type            zeroGradient;
    }
    rightWall
    {
        type            fixedValue;
        value           uniform (-7 0 0);
    }
    lowerWall
    {
        type            empty;
    }
    atmosphere
    {
        type            empty;
    }
    sides
    {
        type            empty;
    }
}


// ************************************************************************* //
