/*--------------------------------*- C++ -*----------------------------------*\
| =========                 |                                                 |
| \\      /  F ield         | OpenFOAM: The Open Source CFD Toolbox           |
|  \\    /   O peration     | Version:  4.1                                   |
|   \\  /    A nd           | Web:      www.OpenFOAM.org                      |
|    \\/     M anipulation  |                                                 |
\*---------------------------------------------------------------------------*/
FoamFile
{
    version     2.0;
    format      ascii;
    class       surfaceScalarField;
    location    "0.95";
    object      phi;
}
// * * * * * * * * * * * * * * * * * * * * * * * * * * * * * * * * * * * * * //

dimensions      [0 3 -1 0 0 0 0];

internalField   nonuniform List<scalar> 
39
(
-25.6677
-25.4954
-25.2999
-25.0974
-24.8917
-24.6834
-24.4731
-24.2609
-24.0469
-23.8313
-23.6144
-23.3962
-23.1769
-22.9566
-22.7356
-22.514
-22.2919
-22.0696
-21.8472
-21.6249
-21.403
-21.1817
-20.9613
-20.742
-20.5242
-20.3083
-20.0946
-19.8838
-19.6763
-19.4728
-19.2741
-19.0811
-18.8947
-18.7161
-18.5467
-18.388
-18.2414
-18.1089
-17.9921
)
;

boundaryField
{
    leftWall
    {
        type            calculated;
        value           uniform 25.7447;
    }
    rightWall
    {
        type            calculated;
        value           uniform -14;
    }
    lowerWall
    {
        type            empty;
        value           nonuniform 0();
    }
    atmosphere
    {
        type            empty;
        value           nonuniform 0();
    }
    sides
    {
        type            empty;
        value           nonuniform 0();
    }
}


// ************************************************************************* //
