/*--------------------------------*- C++ -*----------------------------------*\
| =========                 |                                                 |
| \\      /  F ield         | OpenFOAM: The Open Source CFD Toolbox           |
|  \\    /   O peration     | Version:  4.1                                   |
|   \\  /    A nd           | Web:      www.OpenFOAM.org                      |
|    \\/     M anipulation  |                                                 |
\*---------------------------------------------------------------------------*/
FoamFile
{
    version     2.0;
    format      ascii;
    class       volVectorField;
    location    "0.95";
    object      U;
}
// * * * * * * * * * * * * * * * * * * * * * * * * * * * * * * * * * * * * * //

dimensions      [0 1 -1 0 0 0 0];

internalField   nonuniform List<vector> 
40
(
(-6.43619 0 0)
(-6.39767 0 0)
(-6.35002 0 0)
(-6.29991 0 0)
(-6.2488 0 0)
(-6.19703 0 0)
(-6.14469 0 0)
(-6.09186 0 0)
(-6.03857 0 0)
(-5.98487 0 0)
(-5.9308 0 0)
(-5.87639 0 0)
(-5.82169 0 0)
(-5.76674 0 0)
(-5.71157 0 0)
(-5.65623 0 0)
(-5.60076 0 0)
(-5.5452 0 0)
(-5.48959 0 0)
(-5.434 0 0)
(-5.37847 0 0)
(-5.32305 0 0)
(-5.26781 0 0)
(-5.21283 0 0)
(-5.15817 0 0)
(-5.10393 0 0)
(-5.0502 0 0)
(-4.99711 0 0)
(-4.94478 0 0)
(-4.89336 0 0)
(-4.84304 0 0)
(-4.79402 0 0)
(-4.74652 0 0)
(-4.70083 0 0)
(-4.65725 0 0)
(-4.61612 0 0)
(-4.57785 0 0)
(-4.54286 0 0)
(-4.51158 0 0)
(-4.48447 0 0)
)
;

boundaryField
{
    leftWall
    {
        type            calculated;
        value           uniform (-6.43619 0 0);
    }
    rightWall
    {
        type            calculated;
        value           uniform (-3.5 0 0);
    }
    lowerWall
    {
        type            empty;
    }
    atmosphere
    {
        type            empty;
    }
    sides
    {
        type            empty;
    }
}


// ************************************************************************* //
