/*--------------------------------*- C++ -*----------------------------------*\
| =========                 |                                                 |
| \\      /  F ield         | OpenFOAM: The Open Source CFD Toolbox           |
|  \\    /   O peration     | Version:  4.1                                   |
|   \\  /    A nd           | Web:      www.OpenFOAM.org                      |
|    \\/     M anipulation  |                                                 |
\*---------------------------------------------------------------------------*/
FoamFile
{
    version     2.0;
    format      ascii;
    class       volVectorField;
    location    "1.9";
    object      HU;
}
// * * * * * * * * * * * * * * * * * * * * * * * * * * * * * * * * * * * * * //

dimensions      [0 2 -1 0 0 0 0];

internalField   nonuniform List<vector> 
40
(
(-6.46659 0 0)
(-6.48201 0 0)
(-6.5016 0 0)
(-6.52313 0 0)
(-6.54516 0 0)
(-6.56713 0 0)
(-6.58878 0 0)
(-6.61001 0 0)
(-6.63075 0 0)
(-6.65098 0 0)
(-6.67069 0 0)
(-6.68988 0 0)
(-6.70852 0 0)
(-6.72663 0 0)
(-6.74418 0 0)
(-6.76117 0 0)
(-6.7776 0 0)
(-6.79347 0 0)
(-6.80876 0 0)
(-6.82347 0 0)
(-6.83761 0 0)
(-6.85115 0 0)
(-6.86411 0 0)
(-6.87647 0 0)
(-6.88824 0 0)
(-6.89942 0 0)
(-6.90999 0 0)
(-6.91997 0 0)
(-6.92936 0 0)
(-6.93816 0 0)
(-6.94637 0 0)
(-6.95401 0 0)
(-6.96107 0 0)
(-6.96758 0 0)
(-6.97354 0 0)
(-6.97896 0 0)
(-6.98385 0 0)
(-6.98824 0 0)
(-6.99214 0 0)
(-6.99556 0 0)
)
;

boundaryField
{
    leftWall
    {
        type            zeroGradient;
    }
    rightWall
    {
        type            fixedValue;
        value           uniform (-7 0 0);
    }
    lowerWall
    {
        type            empty;
    }
    atmosphere
    {
        type            empty;
    }
    sides
    {
        type            empty;
    }
}


// ************************************************************************* //
