/*--------------------------------*- C++ -*----------------------------------*\
| =========                 |                                                 |
| \\      /  F ield         | OpenFOAM: The Open Source CFD Toolbox           |
|  \\    /   O peration     | Version:  4.1                                   |
|   \\  /    A nd           | Web:      www.OpenFOAM.org                      |
|    \\/     M anipulation  |                                                 |
\*---------------------------------------------------------------------------*/
FoamFile
{
    version     2.0;
    format      ascii;
    class       surfaceScalarField;
    location    "1.9";
    object      phi;
}
// * * * * * * * * * * * * * * * * * * * * * * * * * * * * * * * * * * * * * //

dimensions      [0 3 -1 0 0 0 0];

internalField   nonuniform List<scalar> 
39
(
-21.1508
-21.0764
-20.9812
-20.8769
-20.7686
-20.6585
-20.5477
-20.4366
-20.3255
-20.2145
-20.1038
-19.9933
-19.8832
-19.7736
-19.6645
-19.556
-19.4483
-19.3415
-19.2357
-19.131
-19.0277
-18.9259
-18.8259
-18.7278
-18.6319
-18.5386
-18.4481
-18.3608
-18.2772
-18.1977
-18.1226
-18.0526
-17.9882
-17.9298
-17.8782
-17.8337
-17.797
-17.7683
-17.7482
)
;

boundaryField
{
    leftWall
    {
        type            calculated;
        value           uniform 21.1806;
    }
    rightWall
    {
        type            calculated;
        value           uniform -14;
    }
    lowerWall
    {
        type            empty;
        value           nonuniform 0();
    }
    atmosphere
    {
        type            empty;
        value           nonuniform 0();
    }
    sides
    {
        type            empty;
        value           nonuniform 0();
    }
}


// ************************************************************************* //
