/*--------------------------------*- C++ -*----------------------------------*\
| =========                 |                                                 |
| \\      /  F ield         | OpenFOAM: The Open Source CFD Toolbox           |
|  \\    /   O peration     | Version:  4.1                                   |
|   \\  /    A nd           | Web:      www.OpenFOAM.org                      |
|    \\/     M anipulation  |                                                 |
\*---------------------------------------------------------------------------*/
FoamFile
{
    version     2.0;
    format      ascii;
    class       volVectorField;
    location    "1.9";
    object      U;
}
// * * * * * * * * * * * * * * * * * * * * * * * * * * * * * * * * * * * * * //

dimensions      [0 1 -1 0 0 0 0];

internalField   nonuniform List<vector> 
40
(
(-5.29516 0 0)
(-5.28022 0 0)
(-5.258 0 0)
(-5.23262 0 0)
(-5.20584 0 0)
(-5.17845 0 0)
(-5.1508 0 0)
(-5.12304 0 0)
(-5.09526 0 0)
(-5.0675 0 0)
(-5.03977 0 0)
(-5.01211 0 0)
(-4.98454 0 0)
(-4.95707 0 0)
(-4.92972 0 0)
(-4.90252 0 0)
(-4.87549 0 0)
(-4.84867 0 0)
(-4.82208 0 0)
(-4.79576 0 0)
(-4.76975 0 0)
(-4.7441 0 0)
(-4.71886 0 0)
(-4.69407 0 0)
(-4.66981 0 0)
(-4.64614 0 0)
(-4.62314 0 0)
(-4.6009 0 0)
(-4.57952 0 0)
(-4.55909 0 0)
(-4.53973 0 0)
(-4.52157 0 0)
(-4.50473 0 0)
(-4.48935 0 0)
(-4.47557 0 0)
(-4.46352 0 0)
(-4.45334 0 0)
(-4.44514 0 0)
(-4.43903 0 0)
(-4.43506 0 0)
)
;

boundaryField
{
    leftWall
    {
        type            calculated;
        value           uniform (-5.29516 0 0);
    }
    rightWall
    {
        type            calculated;
        value           uniform (-3.5 0 0);
    }
    lowerWall
    {
        type            empty;
    }
    atmosphere
    {
        type            empty;
    }
    sides
    {
        type            empty;
    }
}


// ************************************************************************* //
