/*--------------------------------*- C++ -*----------------------------------*\
| =========                 |                                                 |
| \\      /  F ield         | OpenFOAM: The Open Source CFD Toolbox           |
|  \\    /   O peration     | Version:  4.1                                   |
|   \\  /    A nd           | Web:      www.OpenFOAM.org                      |
|    \\/     M anipulation  |                                                 |
\*---------------------------------------------------------------------------*/
FoamFile
{
    version     2.0;
    format      ascii;
    class       volVectorField;
    location    "0.2";
    object      HU;
}
// * * * * * * * * * * * * * * * * * * * * * * * * * * * * * * * * * * * * * //

dimensions      [0 2 -1 0 0 0 0];

internalField   nonuniform List<vector> 
40
(
(0 0 0)
(0 0 0)
(0 0 0)
(0 0 0)
(0 0 0)
(0 0 0)
(0 0 0)
(0 0 0)
(0 0 0)
(0 0 0)
(0 0 0)
(0 0 0)
(0 0 0)
(0 0 0)
(0 0 0)
(0 0 0)
(0 0 0)
(-0 0 0)
(-0.0195879 0 0)
(-0.113571 0 0)
(-0.314491 0 0)
(-0.634038 0 0)
(-1.05198 0 0)
(-1.53685 0 0)
(-2.05876 0 0)
(-2.59214 0 0)
(-3.11614 0 0)
(-3.61485 0 0)
(-4.07779 0 0)
(-4.49981 0 0)
(-4.88023 0 0)
(-5.22137 0 0)
(-5.5269 0 0)
(-5.80027 0 0)
(-6.04363 0 0)
(-6.25757 0 0)
(-6.44165 0 0)
(-6.59533 0 0)
(-6.71884 0 0)
(-6.81367 0 0)
)
;

boundaryField
{
    leftWall
    {
        type            zeroGradient;
    }
    rightWall
    {
        type            fixedValue;
        value           uniform (-7 0 0);
    }
    lowerWall
    {
        type            empty;
    }
    atmosphere
    {
        type            empty;
    }
    sides
    {
        type            empty;
    }
}


// ************************************************************************* //
