/*--------------------------------*- C++ -*----------------------------------*\
| =========                 |                                                 |
| \\      /  F ield         | OpenFOAM: The Open Source CFD Toolbox           |
|  \\    /   O peration     | Version:  4.1                                   |
|   \\  /    A nd           | Web:      www.OpenFOAM.org                      |
|    \\/     M anipulation  |                                                 |
\*---------------------------------------------------------------------------*/
FoamFile
{
    version     2.0;
    format      ascii;
    class       volVectorField;
    location    "0.2";
    object      U;
}
// * * * * * * * * * * * * * * * * * * * * * * * * * * * * * * * * * * * * * //

dimensions      [0 1 -1 0 0 0 0];

internalField   nonuniform List<vector> 
40
(
(0 0 0)
(0 0 0)
(0 0 0)
(0 0 0)
(0 0 0)
(0 0 0)
(0 0 0)
(0 0 0)
(0 0 0)
(0 0 0)
(0 0 0)
(0 0 0)
(0 0 0)
(0 0 0)
(0 0 0)
(0 0 0)
(0 0 0)
(-0 0 0)
(-3.3892 0 0)
(-4.78323 0 0)
(-5.66935 0 0)
(-6.25826 0 0)
(-6.65235 0 0)
(-6.90241 0 0)
(-7.03992 0 0)
(-7.08917 0 0)
(-7.06869 0 0)
(-6.99304 0 0)
(-6.8741 0 0)
(-6.72187 0 0)
(-6.54499 0 0)
(-6.35091 0 0)
(-6.1459 0 0)
(-5.93512 0 0)
(-5.72262 0 0)
(-5.51175 0 0)
(-5.30546 0 0)
(-5.10674 0 0)
(-4.919 0 0)
(-4.74612 0 0)
)
;

boundaryField
{
    leftWall
    {
        type            calculated;
        value           uniform (0 0 0);
    }
    rightWall
    {
        type            calculated;
        value           uniform (-3.5 0 0);
    }
    lowerWall
    {
        type            empty;
    }
    atmosphere
    {
        type            empty;
    }
    sides
    {
        type            empty;
    }
}


// ************************************************************************* //
