/*--------------------------------*- C++ -*----------------------------------*\
| =========                 |                                                 |
| \\      /  F ield         | OpenFOAM: The Open Source CFD Toolbox           |
|  \\    /   O peration     | Version:  4.1                                   |
|   \\  /    A nd           | Web:      www.OpenFOAM.org                      |
|    \\/     M anipulation  |                                                 |
\*---------------------------------------------------------------------------*/
FoamFile
{
    version     2.0;
    format      ascii;
    class       volVectorField;
    location    "2";
    object      HU;
}
// * * * * * * * * * * * * * * * * * * * * * * * * * * * * * * * * * * * * * //

dimensions      [0 2 -1 0 0 0 0];

internalField   nonuniform List<vector> 
40
(
(-6.51294 0 0)
(-6.52691 0 0)
(-6.54463 0 0)
(-6.56419 0 0)
(-6.58428 0 0)
(-6.60435 0 0)
(-6.62416 0 0)
(-6.64358 0 0)
(-6.66256 0 0)
(-6.68108 0 0)
(-6.69913 0 0)
(-6.71668 0 0)
(-6.73374 0 0)
(-6.7503 0 0)
(-6.76636 0 0)
(-6.7819 0 0)
(-6.79693 0 0)
(-6.81144 0 0)
(-6.82542 0 0)
(-6.83887 0 0)
(-6.8518 0 0)
(-6.86418 0 0)
(-6.87603 0 0)
(-6.88733 0 0)
(-6.8981 0 0)
(-6.90832 0 0)
(-6.918 0 0)
(-6.92713 0 0)
(-6.93573 0 0)
(-6.94379 0 0)
(-6.95132 0 0)
(-6.95832 0 0)
(-6.96481 0 0)
(-6.97079 0 0)
(-6.97627 0 0)
(-6.98126 0 0)
(-6.98578 0 0)
(-6.98983 0 0)
(-6.99343 0 0)
(-6.99659 0 0)
)
;

boundaryField
{
    leftWall
    {
        type            zeroGradient;
    }
    rightWall
    {
        type            fixedValue;
        value           uniform (-7 0 0);
    }
    lowerWall
    {
        type            empty;
    }
    atmosphere
    {
        type            empty;
    }
    sides
    {
        type            empty;
    }
}


// ************************************************************************* //
