/*--------------------------------*- C++ -*----------------------------------*\
| =========                 |                                                 |
| \\      /  F ield         | OpenFOAM: The Open Source CFD Toolbox           |
|  \\    /   O peration     | Version:  4.1                                   |
|   \\  /    A nd           | Web:      www.OpenFOAM.org                      |
|    \\/     M anipulation  |                                                 |
\*---------------------------------------------------------------------------*/
FoamFile
{
    version     2.0;
    format      ascii;
    class       surfaceScalarField;
    location    "2";
    object      phi;
}
// * * * * * * * * * * * * * * * * * * * * * * * * * * * * * * * * * * * * * //

dimensions      [0 3 -1 0 0 0 0];

internalField   nonuniform List<scalar> 
39
(
-20.9021
-20.8334
-20.7444
-20.6464
-20.5441
-20.4401
-20.3352
-20.2301
-20.125
-20.02
-19.9153
-19.8109
-19.7069
-19.6034
-19.5005
-19.3983
-19.2969
-19.1964
-19.097
-18.9988
-18.9019
-18.8067
-18.7132
-18.6217
-18.5324
-18.4458
-18.362
-18.2814
-18.2045
-18.1316
-18.0632
-17.9997
-17.9418
-17.8898
-17.8443
-17.8057
-17.7746
-17.7512
-17.7358
)
;

boundaryField
{
    leftWall
    {
        type            calculated;
        value           uniform 20.9295;
    }
    rightWall
    {
        type            calculated;
        value           uniform -14;
    }
    lowerWall
    {
        type            empty;
        value           nonuniform 0();
    }
    atmosphere
    {
        type            empty;
        value           nonuniform 0();
    }
    sides
    {
        type            empty;
        value           nonuniform 0();
    }
}


// ************************************************************************* //
