/*--------------------------------*- C++ -*----------------------------------*\
| =========                 |                                                 |
| \\      /  F ield         | OpenFOAM: The Open Source CFD Toolbox           |
|  \\    /   O peration     | Version:  4.1                                   |
|   \\  /    A nd           | Web:      www.OpenFOAM.org                      |
|    \\/     M anipulation  |                                                 |
\*---------------------------------------------------------------------------*/
FoamFile
{
    version     2.0;
    format      ascii;
    class       volVectorField;
    location    "2";
    object      U;
}
// * * * * * * * * * * * * * * * * * * * * * * * * * * * * * * * * * * * * * //

dimensions      [0 1 -1 0 0 0 0];

internalField   nonuniform List<vector> 
40
(
(-5.23238 0 0)
(-5.21868 0 0)
(-5.19801 0 0)
(-5.17421 0 0)
(-5.14897 0 0)
(-5.12309 0 0)
(-5.09693 0 0)
(-5.07067 0 0)
(-5.04437 0 0)
(-5.0181 0 0)
(-4.99189 0 0)
(-4.96574 0 0)
(-4.93969 0 0)
(-4.91375 0 0)
(-4.88795 0 0)
(-4.86231 0 0)
(-4.83685 0 0)
(-4.81161 0 0)
(-4.78661 0 0)
(-4.76189 0 0)
(-4.7375 0 0)
(-4.71347 0 0)
(-4.68986 0 0)
(-4.66672 0 0)
(-4.64411 0 0)
(-4.6221 0 0)
(-4.60077 0 0)
(-4.58021 0 0)
(-4.5605 0 0)
(-4.54174 0 0)
(-4.52405 0 0)
(-4.50754 0 0)
(-4.49233 0 0)
(-4.47856 0 0)
(-4.46634 0 0)
(-4.4558 0 0)
(-4.44706 0 0)
(-4.44022 0 0)
(-4.43537 0 0)
(-4.43255 0 0)
)
;

boundaryField
{
    leftWall
    {
        type            calculated;
        value           uniform (-5.23238 0 0);
    }
    rightWall
    {
        type            calculated;
        value           uniform (-3.5 0 0);
    }
    lowerWall
    {
        type            empty;
    }
    atmosphere
    {
        type            empty;
    }
    sides
    {
        type            empty;
    }
}


// ************************************************************************* //
