/*--------------------------------*- C++ -*----------------------------------*\
| =========                 |                                                 |
| \\      /  F ield         | OpenFOAM: The Open Source CFD Toolbox           |
|  \\    /   O peration     | Version:  4.1                                   |
|   \\  /    A nd           | Web:      www.OpenFOAM.org                      |
|    \\/     M anipulation  |                                                 |
\*---------------------------------------------------------------------------*/
FoamFile
{
    version     2.0;
    format      ascii;
    class       volVectorField;
    location    "1.2";
    object      HU;
}
// * * * * * * * * * * * * * * * * * * * * * * * * * * * * * * * * * * * * * //

dimensions      [0 2 -1 0 0 0 0];

internalField   nonuniform List<vector> 
40
(
(-5.81714 0 0)
(-5.8545 0 0)
(-5.90065 0 0)
(-5.94888 0 0)
(-5.99706 0 0)
(-6.04459 0 0)
(-6.09128 0 0)
(-6.13705 0 0)
(-6.18188 0 0)
(-6.22572 0 0)
(-6.26856 0 0)
(-6.31037 0 0)
(-6.35111 0 0)
(-6.39078 0 0)
(-6.42933 0 0)
(-6.46675 0 0)
(-6.50302 0 0)
(-6.53811 0 0)
(-6.57199 0 0)
(-6.60466 0 0)
(-6.63608 0 0)
(-6.66624 0 0)
(-6.69512 0 0)
(-6.72271 0 0)
(-6.74898 0 0)
(-6.77392 0 0)
(-6.79752 0 0)
(-6.81977 0 0)
(-6.84066 0 0)
(-6.86019 0 0)
(-6.87834 0 0)
(-6.89514 0 0)
(-6.91058 0 0)
(-6.92468 0 0)
(-6.93747 0 0)
(-6.94898 0 0)
(-6.95925 0 0)
(-6.96832 0 0)
(-6.97626 0 0)
(-6.98311 0 0)
)
;

boundaryField
{
    leftWall
    {
        type            zeroGradient;
    }
    rightWall
    {
        type            fixedValue;
        value           uniform (-7 0 0);
    }
    lowerWall
    {
        type            empty;
    }
    atmosphere
    {
        type            empty;
    }
    sides
    {
        type            empty;
    }
}


// ************************************************************************* //
