/*--------------------------------*- C++ -*----------------------------------*\
| =========                 |                                                 |
| \\      /  F ield         | OpenFOAM: The Open Source CFD Toolbox           |
|  \\    /   O peration     | Version:  4.1                                   |
|   \\  /    A nd           | Web:      www.OpenFOAM.org                      |
|    \\/     M anipulation  |                                                 |
\*---------------------------------------------------------------------------*/
FoamFile
{
    version     2.0;
    format      ascii;
    class       surfaceScalarField;
    location    "1.2";
    object      phi;
}
// * * * * * * * * * * * * * * * * * * * * * * * * * * * * * * * * * * * * * //

dimensions      [0 3 -1 0 0 0 0];

internalField   nonuniform List<scalar> 
39
(
-23.8933
-23.7565
-23.5957
-23.4272
-23.2559
-23.0831
-22.9093
-22.7347
-22.5595
-22.3837
-22.2074
-22.0307
-21.8538
-21.6767
-21.4995
-21.3223
-21.1453
-20.9687
-20.7925
-20.617
-20.4422
-20.2685
-20.0961
-19.9252
-19.7562
-19.5893
-19.425
-19.2637
-19.1059
-18.9522
-18.8033
-18.6598
-18.5227
-18.393
-18.2715
-18.1595
-18.058
-17.9685
-17.8918
)
;

boundaryField
{
    leftWall
    {
        type            calculated;
        value           uniform 23.9524;
    }
    rightWall
    {
        type            calculated;
        value           uniform -14;
    }
    lowerWall
    {
        type            empty;
        value           nonuniform 0();
    }
    atmosphere
    {
        type            empty;
        value           nonuniform 0();
    }
    sides
    {
        type            empty;
        value           nonuniform 0();
    }
}


// ************************************************************************* //
