/*--------------------------------*- C++ -*----------------------------------*\
| =========                 |                                                 |
| \\      /  F ield         | OpenFOAM: The Open Source CFD Toolbox           |
|  \\    /   O peration     | Version:  4.1                                   |
|   \\  /    A nd           | Web:      www.OpenFOAM.org                      |
|    \\/     M anipulation  |                                                 |
\*---------------------------------------------------------------------------*/
FoamFile
{
    version     2.0;
    format      ascii;
    class       volVectorField;
    location    "1.2";
    object      U;
}
// * * * * * * * * * * * * * * * * * * * * * * * * * * * * * * * * * * * * * //

dimensions      [0 1 -1 0 0 0 0];

internalField   nonuniform List<vector> 
40
(
(-5.98811 0 0)
(-5.95853 0 0)
(-5.91973 0 0)
(-5.87811 0 0)
(-5.83549 0 0)
(-5.79243 0 0)
(-5.7491 0 0)
(-5.70554 0 0)
(-5.66181 0 0)
(-5.61793 0 0)
(-5.57391 0 0)
(-5.52979 0 0)
(-5.48558 0 0)
(-5.44131 0 0)
(-5.39701 0 0)
(-5.35271 0 0)
(-5.30844 0 0)
(-5.26423 0 0)
(-5.22012 0 0)
(-5.17614 0 0)
(-5.13234 0 0)
(-5.08878 0 0)
(-5.0455 0 0)
(-5.00257 0 0)
(-4.96005 0 0)
(-4.91804 0 0)
(-4.87661 0 0)
(-4.83588 0 0)
(-4.79596 0 0)
(-4.75699 0 0)
(-4.71911 0 0)
(-4.68252 0 0)
(-4.6474 0 0)
(-4.61398 0 0)
(-4.5825 0 0)
(-4.55324 0 0)
(-4.52649 0 0)
(-4.50254 0 0)
(-4.48169 0 0)
(-4.46423 0 0)
)
;

boundaryField
{
    leftWall
    {
        type            calculated;
        value           uniform (-5.98811 0 0);
    }
    rightWall
    {
        type            calculated;
        value           uniform (-3.5 0 0);
    }
    lowerWall
    {
        type            empty;
    }
    atmosphere
    {
        type            empty;
    }
    sides
    {
        type            empty;
    }
}


// ************************************************************************* //
