/*--------------------------------*- C++ -*----------------------------------*\
| =========                 |                                                 |
| \\      /  F ield         | OpenFOAM: The Open Source CFD Toolbox           |
|  \\    /   O peration     | Version:  4.1                                   |
|   \\  /    A nd           | Web:      www.OpenFOAM.org                      |
|    \\/     M anipulation  |                                                 |
\*---------------------------------------------------------------------------*/
FoamFile
{
    version     2.0;
    format      ascii;
    class       volVectorField;
    location    "0.9";
    object      HU;
}
// * * * * * * * * * * * * * * * * * * * * * * * * * * * * * * * * * * * * * //

dimensions      [0 2 -1 0 0 0 0];

internalField   nonuniform List<vector> 
40
(
(-5.10554 0 0)
(-5.16807 0 0)
(-5.24141 0 0)
(-5.31622 0 0)
(-5.39055 0 0)
(-5.46398 0 0)
(-5.53637 0 0)
(-5.60765 0 0)
(-5.67775 0 0)
(-5.74661 0 0)
(-5.81415 0 0)
(-5.88033 0 0)
(-5.94507 0 0)
(-6.00832 0 0)
(-6.07001 0 0)
(-6.13009 0 0)
(-6.1885 0 0)
(-6.24519 0 0)
(-6.3001 0 0)
(-6.35317 0 0)
(-6.40436 0 0)
(-6.4536 0 0)
(-6.50086 0 0)
(-6.54608 0 0)
(-6.58922 0 0)
(-6.63023 0 0)
(-6.66908 0 0)
(-6.70574 0 0)
(-6.74017 0 0)
(-6.77234 0 0)
(-6.80225 0 0)
(-6.82987 0 0)
(-6.85521 0 0)
(-6.87827 0 0)
(-6.89909 0 0)
(-6.9177 0 0)
(-6.93415 0 0)
(-6.94854 0 0)
(-6.96095 0 0)
(-6.97152 0 0)
)
;

boundaryField
{
    leftWall
    {
        type            zeroGradient;
    }
    rightWall
    {
        type            fixedValue;
        value           uniform (-7 0 0);
    }
    lowerWall
    {
        type            empty;
    }
    atmosphere
    {
        type            empty;
    }
    sides
    {
        type            empty;
    }
}


// ************************************************************************* //
