/*--------------------------------*- C++ -*----------------------------------*\
| =========                 |                                                 |
| \\      /  F ield         | OpenFOAM: The Open Source CFD Toolbox           |
|  \\    /   O peration     | Version:  4.1                                   |
|   \\  /    A nd           | Web:      www.OpenFOAM.org                      |
|    \\/     M anipulation  |                                                 |
\*---------------------------------------------------------------------------*/
FoamFile
{
    version     2.0;
    format      ascii;
    class       volVectorField;
    location    "0.9";
    object      U;
}
// * * * * * * * * * * * * * * * * * * * * * * * * * * * * * * * * * * * * * //

dimensions      [0 1 -1 0 0 0 0];

internalField   nonuniform List<vector> 
40
(
(-6.54785 0 0)
(-6.50745 0 0)
(-6.45808 0 0)
(-6.4063 0 0)
(-6.35343 0 0)
(-6.29979 0 0)
(-6.24546 0 0)
(-6.19052 0 0)
(-6.13502 0 0)
(-6.079 0 0)
(-6.02253 0 0)
(-5.96563 0 0)
(-5.90836 0 0)
(-5.85077 0 0)
(-5.7929 0 0)
(-5.7348 0 0)
(-5.67651 0 0)
(-5.61808 0 0)
(-5.55956 0 0)
(-5.501 0 0)
(-5.44247 0 0)
(-5.38401 0 0)
(-5.3257 0 0)
(-5.26761 0 0)
(-5.20982 0 0)
(-5.15242 0 0)
(-5.09551 0 0)
(-5.03921 0 0)
(-4.98366 0 0)
(-4.92902 0 0)
(-4.87546 0 0)
(-4.8232 0 0)
(-4.77249 0 0)
(-4.72359 0 0)
(-4.67685 0 0)
(-4.63263 0 0)
(-4.59134 0 0)
(-4.55345 0 0)
(-4.51944 0 0)
(-4.48979 0 0)
)
;

boundaryField
{
    leftWall
    {
        type            calculated;
        value           uniform (-6.54785 0 0);
    }
    rightWall
    {
        type            calculated;
        value           uniform (-3.5 0 0);
    }
    lowerWall
    {
        type            empty;
    }
    atmosphere
    {
        type            empty;
    }
    sides
    {
        type            empty;
    }
}


// ************************************************************************* //
