/*--------------------------------*- C++ -*----------------------------------*\
| =========                 |                                                 |
| \\      /  F ield         | OpenFOAM: The Open Source CFD Toolbox           |
|  \\    /   O peration     | Version:  4.1                                   |
|   \\  /    A nd           | Web:      www.OpenFOAM.org                      |
|    \\/     M anipulation  |                                                 |
\*---------------------------------------------------------------------------*/
FoamFile
{
    version     2.0;
    format      ascii;
    class       volVectorField;
    location    "0.4";
    object      HU;
}
// * * * * * * * * * * * * * * * * * * * * * * * * * * * * * * * * * * * * * //

dimensions      [0 2 -1 0 0 0 0];

internalField   nonuniform List<vector> 
40
(
(0 0 0)
(-0 0 0)
(-0.0300988 0 0)
(-0.141017 0 0)
(-0.354778 0 0)
(-0.665375 0 0)
(-1.04241 0 0)
(-1.44822 0 0)
(-1.85038 0 0)
(-2.22783 0 0)
(-2.5712 0 0)
(-2.87969 0 0)
(-3.15708 0 0)
(-3.40881 0 0)
(-3.64035 0 0)
(-3.8564 0 0)
(-4.0607 0 0)
(-4.25599 0 0)
(-4.44423 0 0)
(-4.62664 0 0)
(-4.80394 0 0)
(-4.97645 0 0)
(-5.14415 0 0)
(-5.30685 0 0)
(-5.4642 0 0)
(-5.61578 0 0)
(-5.76113 0 0)
(-5.89977 0 0)
(-6.03125 0 0)
(-6.15513 0 0)
(-6.271 0 0)
(-6.37849 0 0)
(-6.47726 0 0)
(-6.56705 0 0)
(-6.64766 0 0)
(-6.71897 0 0)
(-6.78095 0 0)
(-6.83372 0 0)
(-6.87755 0 0)
(-6.91296 0 0)
)
;

boundaryField
{
    leftWall
    {
        type            zeroGradient;
    }
    rightWall
    {
        type            fixedValue;
        value           uniform (-7 0 0);
    }
    lowerWall
    {
        type            empty;
    }
    atmosphere
    {
        type            empty;
    }
    sides
    {
        type            empty;
    }
}


// ************************************************************************* //
