/*--------------------------------*- C++ -*----------------------------------*\
| =========                 |                                                 |
| \\      /  F ield         | OpenFOAM: The Open Source CFD Toolbox           |
|  \\    /   O peration     | Version:  4.1                                   |
|   \\  /    A nd           | Web:      www.OpenFOAM.org                      |
|    \\/     M anipulation  |                                                 |
\*---------------------------------------------------------------------------*/
FoamFile
{
    version     2.0;
    format      ascii;
    class       surfaceScalarField;
    location    "0.4";
    object      phi;
}
// * * * * * * * * * * * * * * * * * * * * * * * * * * * * * * * * * * * * * //

dimensions      [0 3 -1 0 0 0 0];

internalField   nonuniform List<scalar> 
39
(
0
-7.27767
-17.0924
-21.2952
-24.1033
-26.0377
-27.3756
-28.288
-28.8869
-29.2496
-29.4309
-29.4713
-29.4014
-29.2444
-29.0182
-28.7371
-28.4122
-28.052
-27.6637
-27.2525
-26.823
-26.3784
-25.9217
-25.4552
-24.981
-24.5008
-24.0162
-23.529
-23.0407
-22.5529
-22.0674
-21.5861
-21.1113
-20.6453
-20.1912
-19.7525
-19.3334
-18.9391
-18.5756
)
;

boundaryField
{
    leftWall
    {
        type            calculated;
        value           uniform 0;
    }
    rightWall
    {
        type            calculated;
        value           uniform -14;
    }
    lowerWall
    {
        type            empty;
        value           nonuniform 0();
    }
    atmosphere
    {
        type            empty;
        value           nonuniform 0();
    }
    sides
    {
        type            empty;
        value           nonuniform 0();
    }
}


// ************************************************************************* //
