/*--------------------------------*- C++ -*----------------------------------*\
| =========                 |                                                 |
| \\      /  F ield         | OpenFOAM: The Open Source CFD Toolbox           |
|  \\    /   O peration     | Version:  4.1                                   |
|   \\  /    A nd           | Web:      www.OpenFOAM.org                      |
|    \\/     M anipulation  |                                                 |
\*---------------------------------------------------------------------------*/
FoamFile
{
    version     2.0;
    format      ascii;
    class       volVectorField;
    location    "0.4";
    object      U;
}
// * * * * * * * * * * * * * * * * * * * * * * * * * * * * * * * * * * * * * //

dimensions      [0 1 -1 0 0 0 0];

internalField   nonuniform List<vector> 
40
(
(0 0 0)
(-0 0 0)
(-3.63884 0 0)
(-4.90735 0 0)
(-5.74024 0 0)
(-6.3114 0 0)
(-6.70745 0 0)
(-6.98037 0 0)
(-7.16362 0 0)
(-7.27984 0 0)
(-7.34495 0 0)
(-7.3705 0 0)
(-7.36517 0 0)
(-7.33553 0 0)
(-7.28665 0 0)
(-7.22247 0 0)
(-7.1461 0 0)
(-7.05998 0 0)
(-6.96604 0 0)
(-6.8658 0 0)
(-6.76047 0 0)
(-6.65101 0 0)
(-6.5382 0 0)
(-6.42267 0 0)
(-6.30496 0 0)
(-6.18554 0 0)
(-6.06485 0 0)
(-5.94328 0 0)
(-5.82123 0 0)
(-5.69911 0 0)
(-5.57734 0 0)
(-5.45637 0 0)
(-5.33671 0 0)
(-5.21893 0 0)
(-5.10372 0 0)
(-4.99187 0 0)
(-4.88436 0 0)
(-4.78234 0 0)
(-4.68722 0 0)
(-4.60059 0 0)
)
;

boundaryField
{
    leftWall
    {
        type            calculated;
        value           uniform (0 0 0);
    }
    rightWall
    {
        type            calculated;
        value           uniform (-3.5 0 0);
    }
    lowerWall
    {
        type            empty;
    }
    atmosphere
    {
        type            empty;
    }
    sides
    {
        type            empty;
    }
}


// ************************************************************************* //
