/*--------------------------------*- C++ -*----------------------------------*\
| =========                 |                                                 |
| \\      /  F ield         | OpenFOAM: The Open Source CFD Toolbox           |
|  \\    /   O peration     | Version:  4.1                                   |
|   \\  /    A nd           | Web:      www.OpenFOAM.org                      |
|    \\/     M anipulation  |                                                 |
\*---------------------------------------------------------------------------*/
FoamFile
{
    version     2.0;
    format      ascii;
    class       volVectorField;
    location    "1.75";
    object      HU;
}
// * * * * * * * * * * * * * * * * * * * * * * * * * * * * * * * * * * * * * //

dimensions      [0 2 -1 0 0 0 0];

internalField   nonuniform List<vector> 
40
(
(-6.38325 0 0)
(-6.40133 0 0)
(-6.42433 0 0)
(-6.44938 0 0)
(-6.47488 0 0)
(-6.50024 0 0)
(-6.52518 0 0)
(-6.54962 0 0)
(-6.57351 0 0)
(-6.59681 0 0)
(-6.61952 0 0)
(-6.64163 0 0)
(-6.66312 0 0)
(-6.68399 0 0)
(-6.70423 0 0)
(-6.72384 0 0)
(-6.7428 0 0)
(-6.76111 0 0)
(-6.77876 0 0)
(-6.79575 0 0)
(-6.81207 0 0)
(-6.82771 0 0)
(-6.84267 0 0)
(-6.85695 0 0)
(-6.87053 0 0)
(-6.88343 0 0)
(-6.89563 0 0)
(-6.90715 0 0)
(-6.91797 0 0)
(-6.9281 0 0)
(-6.93755 0 0)
(-6.94633 0 0)
(-6.95444 0 0)
(-6.96189 0 0)
(-6.96871 0 0)
(-6.9749 0 0)
(-6.98048 0 0)
(-6.98547 0 0)
(-6.9899 0 0)
(-6.99377 0 0)
)
;

boundaryField
{
    leftWall
    {
        type            zeroGradient;
    }
    rightWall
    {
        type            fixedValue;
        value           uniform (-7 0 0);
    }
    lowerWall
    {
        type            empty;
    }
    atmosphere
    {
        type            empty;
    }
    sides
    {
        type            empty;
    }
}


// ************************************************************************* //
