/*--------------------------------*- C++ -*----------------------------------*\
| =========                 |                                                 |
| \\      /  F ield         | OpenFOAM: The Open Source CFD Toolbox           |
|  \\    /   O peration     | Version:  4.1                                   |
|   \\  /    A nd           | Web:      www.OpenFOAM.org                      |
|    \\/     M anipulation  |                                                 |
\*---------------------------------------------------------------------------*/
FoamFile
{
    version     2.0;
    format      ascii;
    class       volVectorField;
    location    "1.75";
    object      U;
}
// * * * * * * * * * * * * * * * * * * * * * * * * * * * * * * * * * * * * * //

dimensions      [0 1 -1 0 0 0 0];

internalField   nonuniform List<vector> 
40
(
(-5.40148 0 0)
(-5.38439 0 0)
(-5.35954 0 0)
(-5.33152 0 0)
(-5.30216 0 0)
(-5.27224 0 0)
(-5.24209 0 0)
(-5.21183 0 0)
(-5.18154 0 0)
(-5.15126 0 0)
(-5.121 0 0)
(-5.09078 0 0)
(-5.06063 0 0)
(-5.03056 0 0)
(-5.0006 0 0)
(-4.97077 0 0)
(-4.94109 0 0)
(-4.91159 0 0)
(-4.88232 0 0)
(-4.85329 0 0)
(-4.82456 0 0)
(-4.79616 0 0)
(-4.76815 0 0)
(-4.74059 0 0)
(-4.71353 0 0)
(-4.68705 0 0)
(-4.66124 0 0)
(-4.63617 0 0)
(-4.61195 0 0)
(-4.58869 0 0)
(-4.56651 0 0)
(-4.54555 0 0)
(-4.52594 0 0)
(-4.50783 0 0)
(-4.49139 0 0)
(-4.47677 0 0)
(-4.46412 0 0)
(-4.4536 0 0)
(-4.44532 0 0)
(-4.43938 0 0)
)
;

boundaryField
{
    leftWall
    {
        type            calculated;
        value           uniform (-5.40148 0 0);
    }
    rightWall
    {
        type            calculated;
        value           uniform (-3.5 0 0);
    }
    lowerWall
    {
        type            empty;
    }
    atmosphere
    {
        type            empty;
    }
    sides
    {
        type            empty;
    }
}


// ************************************************************************* //
