/*--------------------------------*- C++ -*----------------------------------*\
| =========                 |                                                 |
| \\      /  F ield         | OpenFOAM: The Open Source CFD Toolbox           |
|  \\    /   O peration     | Version:  4.1                                   |
|   \\  /    A nd           | Web:      www.OpenFOAM.org                      |
|    \\/     M anipulation  |                                                 |
\*---------------------------------------------------------------------------*/
FoamFile
{
    version     2.0;
    format      ascii;
    class       volVectorField;
    location    "1.85";
    object      HU;
}
// * * * * * * * * * * * * * * * * * * * * * * * * * * * * * * * * * * * * * //

dimensions      [0 2 -1 0 0 0 0];

internalField   nonuniform List<vector> 
40
(
(-6.44083 0 0)
(-6.45706 0 0)
(-6.47771 0 0)
(-6.50033 0 0)
(-6.52344 0 0)
(-6.54645 0 0)
(-6.56913 0 0)
(-6.59135 0 0)
(-6.61306 0 0)
(-6.63424 0 0)
(-6.65489 0 0)
(-6.67497 0 0)
(-6.6945 0 0)
(-6.71346 0 0)
(-6.73184 0 0)
(-6.74964 0 0)
(-6.76685 0 0)
(-6.78347 0 0)
(-6.7995 0 0)
(-6.81491 0 0)
(-6.82972 0 0)
(-6.84391 0 0)
(-6.85749 0 0)
(-6.87044 0 0)
(-6.88277 0 0)
(-6.89447 0 0)
(-6.90555 0 0)
(-6.916 0 0)
(-6.92583 0 0)
(-6.93504 0 0)
(-6.94364 0 0)
(-6.95162 0 0)
(-6.95901 0 0)
(-6.96581 0 0)
(-6.97203 0 0)
(-6.97769 0 0)
(-6.9828 0 0)
(-6.98738 0 0)
(-6.99144 0 0)
(-6.995 0 0)
)
;

boundaryField
{
    leftWall
    {
        type            zeroGradient;
    }
    rightWall
    {
        type            fixedValue;
        value           uniform (-7 0 0);
    }
    lowerWall
    {
        type            empty;
    }
    atmosphere
    {
        type            empty;
    }
    sides
    {
        type            empty;
    }
}


// ************************************************************************* //
