/*--------------------------------*- C++ -*----------------------------------*\
| =========                 |                                                 |
| \\      /  F ield         | OpenFOAM: The Open Source CFD Toolbox           |
|  \\    /   O peration     | Version:  4.1                                   |
|   \\  /    A nd           | Web:      www.OpenFOAM.org                      |
|    \\/     M anipulation  |                                                 |
\*---------------------------------------------------------------------------*/
FoamFile
{
    version     2.0;
    format      ascii;
    class       volVectorField;
    location    "1.85";
    object      U;
}
// * * * * * * * * * * * * * * * * * * * * * * * * * * * * * * * * * * * * * //

dimensions      [0 1 -1 0 0 0 0];

internalField   nonuniform List<vector> 
40
(
(-5.32886 0 0)
(-5.31324 0 0)
(-5.29019 0 0)
(-5.26397 0 0)
(-5.23637 0 0)
(-5.20817 0 0)
(-5.17972 0 0)
(-5.15117 0 0)
(-5.12259 0 0)
(-5.09403 0 0)
(-5.0655 0 0)
(-5.03703 0 0)
(-5.00864 0 0)
(-4.98034 0 0)
(-4.95216 0 0)
(-4.92413 0 0)
(-4.89626 0 0)
(-4.86859 0 0)
(-4.84115 0 0)
(-4.81397 0 0)
(-4.7871 0 0)
(-4.76058 0 0)
(-4.73445 0 0)
(-4.70879 0 0)
(-4.68364 0 0)
(-4.65908 0 0)
(-4.63519 0 0)
(-4.61205 0 0)
(-4.58977 0 0)
(-4.56844 0 0)
(-4.54819 0 0)
(-4.52914 0 0)
(-4.51143 0 0)
(-4.49518 0 0)
(-4.48056 0 0)
(-4.4677 0 0)
(-4.45674 0 0)
(-4.44781 0 0)
(-4.44101 0 0)
(-4.43642 0 0)
)
;

boundaryField
{
    leftWall
    {
        type            calculated;
        value           uniform (-5.32886 0 0);
    }
    rightWall
    {
        type            calculated;
        value           uniform (-3.5 0 0);
    }
    lowerWall
    {
        type            empty;
    }
    atmosphere
    {
        type            empty;
    }
    sides
    {
        type            empty;
    }
}


// ************************************************************************* //
