/*--------------------------------*- C++ -*----------------------------------*\
| =========                 |                                                 |
| \\      /  F ield         | OpenFOAM: The Open Source CFD Toolbox           |
|  \\    /   O peration     | Version:  4.1                                   |
|   \\  /    A nd           | Web:      www.OpenFOAM.org                      |
|    \\/     M anipulation  |                                                 |
\*---------------------------------------------------------------------------*/
FoamFile
{
    version     2.0;
    format      ascii;
    class       volVectorField;
    location    "0.75";
    object      HU;
}
// * * * * * * * * * * * * * * * * * * * * * * * * * * * * * * * * * * * * * //

dimensions      [0 2 -1 0 0 0 0];

internalField   nonuniform List<vector> 
40
(
(-4.49093 0 0)
(-4.57502 0 0)
(-4.6693 0 0)
(-4.76449 0 0)
(-4.85918 0 0)
(-4.9531 0 0)
(-5.04611 0 0)
(-5.1381 0 0)
(-5.22897 0 0)
(-5.3186 0 0)
(-5.40687 0 0)
(-5.49367 0 0)
(-5.5789 0 0)
(-5.66245 0 0)
(-5.74421 0 0)
(-5.82408 0 0)
(-5.90196 0 0)
(-5.97775 0 0)
(-6.05136 0 0)
(-6.1227 0 0)
(-6.19166 0 0)
(-6.25817 0 0)
(-6.32214 0 0)
(-6.38347 0 0)
(-6.4421 0 0)
(-6.49793 0 0)
(-6.5509 0 0)
(-6.60094 0 0)
(-6.64799 0 0)
(-6.69199 0 0)
(-6.73291 0 0)
(-6.77069 0 0)
(-6.80533 0 0)
(-6.83681 0 0)
(-6.86515 0 0)
(-6.89039 0 0)
(-6.91258 0 0)
(-6.93183 0 0)
(-6.94828 0 0)
(-6.96212 0 0)
)
;

boundaryField
{
    leftWall
    {
        type            zeroGradient;
    }
    rightWall
    {
        type            fixedValue;
        value           uniform (-7 0 0);
    }
    lowerWall
    {
        type            empty;
    }
    atmosphere
    {
        type            empty;
    }
    sides
    {
        type            empty;
    }
}


// ************************************************************************* //
