/*--------------------------------*- C++ -*----------------------------------*\
| =========                 |                                                 |
| \\      /  F ield         | OpenFOAM: The Open Source CFD Toolbox           |
|  \\    /   O peration     | Version:  4.1                                   |
|   \\  /    A nd           | Web:      www.OpenFOAM.org                      |
|    \\/     M anipulation  |                                                 |
\*---------------------------------------------------------------------------*/
FoamFile
{
    version     2.0;
    format      ascii;
    class       volVectorField;
    location    "0.75";
    object      U;
}
// * * * * * * * * * * * * * * * * * * * * * * * * * * * * * * * * * * * * * //

dimensions      [0 1 -1 0 0 0 0];

internalField   nonuniform List<vector> 
40
(
(-6.93519 0 0)
(-6.89075 0 0)
(-6.83816 0 0)
(-6.78298 0 0)
(-6.72607 0 0)
(-6.66765 0 0)
(-6.60786 0 0)
(-6.54681 0 0)
(-6.4846 0 0)
(-6.42132 0 0)
(-6.35708 0 0)
(-6.29196 0 0)
(-6.22605 0 0)
(-6.15943 0 0)
(-6.09218 0 0)
(-6.02438 0 0)
(-5.9561 0 0)
(-5.88742 0 0)
(-5.8184 0 0)
(-5.74914 0 0)
(-5.67969 0 0)
(-5.61015 0 0)
(-5.54059 0 0)
(-5.47111 0 0)
(-5.40179 0 0)
(-5.33275 0 0)
(-5.2641 0 0)
(-5.19597 0 0)
(-5.12853 0 0)
(-5.06193 0 0)
(-4.99639 0 0)
(-4.93214 0 0)
(-4.86945 0 0)
(-4.80866 0 0)
(-4.75014 0 0)
(-4.69434 0 0)
(-4.64175 0 0)
(-4.59296 0 0)
(-4.5486 0 0)
(-4.50936 0 0)
)
;

boundaryField
{
    leftWall
    {
        type            calculated;
        value           uniform (-6.93519 0 0);
    }
    rightWall
    {
        type            calculated;
        value           uniform (-3.5 0 0);
    }
    lowerWall
    {
        type            empty;
    }
    atmosphere
    {
        type            empty;
    }
    sides
    {
        type            empty;
    }
}


// ************************************************************************* //
