/*--------------------------------*- C++ -*----------------------------------*\
| =========                 |                                                 |
| \\      /  F ield         | OpenFOAM: The Open Source CFD Toolbox           |
|  \\    /   O peration     | Version:  4.1                                   |
|   \\  /    A nd           | Web:      www.OpenFOAM.org                      |
|    \\/     M anipulation  |                                                 |
\*---------------------------------------------------------------------------*/
FoamFile
{
    version     2.0;
    format      ascii;
    class       volVectorField;
    location    "1.8";
    object      HU;
}
// * * * * * * * * * * * * * * * * * * * * * * * * * * * * * * * * * * * * * //

dimensions      [0 2 -1 0 0 0 0];

internalField   nonuniform List<vector> 
40
(
(-6.41312 0 0)
(-6.43023 0 0)
(-6.45202 0 0)
(-6.47581 0 0)
(-6.50007 0 0)
(-6.52421 0 0)
(-6.54798 0 0)
(-6.57127 0 0)
(-6.59403 0 0)
(-6.61623 0 0)
(-6.63787 0 0)
(-6.65893 0 0)
(-6.6794 0 0)
(-6.69928 0 0)
(-6.71856 0 0)
(-6.73723 0 0)
(-6.75528 0 0)
(-6.77272 0 0)
(-6.78952 0 0)
(-6.80569 0 0)
(-6.82123 0 0)
(-6.83612 0 0)
(-6.85036 0 0)
(-6.86395 0 0)
(-6.87688 0 0)
(-6.88916 0 0)
(-6.90078 0 0)
(-6.91174 0 0)
(-6.92204 0 0)
(-6.9317 0 0)
(-6.9407 0 0)
(-6.94907 0 0)
(-6.9568 0 0)
(-6.96392 0 0)
(-6.97043 0 0)
(-6.97634 0 0)
(-6.98168 0 0)
(-6.98645 0 0)
(-6.99069 0 0)
(-6.9944 0 0)
)
;

boundaryField
{
    leftWall
    {
        type            zeroGradient;
    }
    rightWall
    {
        type            fixedValue;
        value           uniform (-7 0 0);
    }
    lowerWall
    {
        type            empty;
    }
    atmosphere
    {
        type            empty;
    }
    sides
    {
        type            empty;
    }
}


// ************************************************************************* //
