/*--------------------------------*- C++ -*----------------------------------*\
| =========                 |                                                 |
| \\      /  F ield         | OpenFOAM: The Open Source CFD Toolbox           |
|  \\    /   O peration     | Version:  4.1                                   |
|   \\  /    A nd           | Web:      www.OpenFOAM.org                      |
|    \\/     M anipulation  |                                                 |
\*---------------------------------------------------------------------------*/
FoamFile
{
    version     2.0;
    format      ascii;
    class       volVectorField;
    location    "1.8";
    object      U;
}
// * * * * * * * * * * * * * * * * * * * * * * * * * * * * * * * * * * * * * //

dimensions      [0 1 -1 0 0 0 0];

internalField   nonuniform List<vector> 
40
(
(-5.36426 0 0)
(-5.34792 0 0)
(-5.32399 0 0)
(-5.29689 0 0)
(-5.26843 0 0)
(-5.2394 0 0)
(-5.21011 0 0)
(-5.18073 0 0)
(-5.15132 0 0)
(-5.12191 0 0)
(-5.09254 0 0)
(-5.06322 0 0)
(-5.03397 0 0)
(-5.00481 0 0)
(-4.97576 0 0)
(-4.94685 0 0)
(-4.9181 0 0)
(-4.88954 0 0)
(-4.8612 0 0)
(-4.83312 0 0)
(-4.80534 0 0)
(-4.77791 0 0)
(-4.75086 0 0)
(-4.72427 0 0)
(-4.69819 0 0)
(-4.6727 0 0)
(-4.64787 0 0)
(-4.62379 0 0)
(-4.60057 0 0)
(-4.5783 0 0)
(-4.55711 0 0)
(-4.53712 0 0)
(-4.51848 0 0)
(-4.50134 0 0)
(-4.48583 0 0)
(-4.47211 0 0)
(-4.46033 0 0)
(-4.45062 0 0)
(-4.4431 0 0)
(-4.43786 0 0)
)
;

boundaryField
{
    leftWall
    {
        type            calculated;
        value           uniform (-5.36426 0 0);
    }
    rightWall
    {
        type            calculated;
        value           uniform (-3.5 0 0);
    }
    lowerWall
    {
        type            empty;
    }
    atmosphere
    {
        type            empty;
    }
    sides
    {
        type            empty;
    }
}


// ************************************************************************* //
